VARIABLES="w (rad/s)"
"abs(F   1   1)" "angle(F   1   1)"
"abs(F   1   2)" "angle(F   1   2)"
"abs(F   1   3)" "angle(F   1   3)"
"abs(F   1   4)" "angle(F   1   4)"
"abs(F   1   5)" "angle(F   1   5)"
"abs(F   1   6)" "angle(F   1   6)"
Zone t="Diffraction force - beta =   0.000 deg",I=    41,F=POINT
  0.1000000E+00  0.6607709E+04 -0.1563722E+01  0.3159587E+04  0.1583243E+01  0.1354824E+04 -0.3119095E+01  0.1460182E+05  0.1743676E+01  0.3021472E+05  0.1431428E+01  0.1655599E+05  0.1584560E+01
  0.1475000E+00  0.1439845E+05 -0.1560903E+01  0.6890968E+04  0.1588416E+01  0.2940233E+04 -0.3103904E+01  0.3174817E+05  0.1748473E+01  0.6586358E+05  0.1434885E+01  0.3612639E+05  0.1591240E+01
  0.1950000E+00  0.2513087E+05 -0.1556977E+01  0.1204364E+05  0.1595615E+01  0.5095729E+04 -0.3083884E+01  0.5514947E+05  0.1755209E+01  0.1148097E+06  0.1439692E+01  0.6312055E+05  0.1600525E+01
  0.2425000E+00  0.3867946E+05 -0.1551902E+01  0.1856042E+05  0.1604838E+01  0.7754622E+04 -0.3059657E+01  0.8452799E+05  0.1763162E+01  0.1766783E+06  0.1446487E+01  0.9729366E+05  0.1612392E+01
  0.2900000E+00  0.5509278E+05 -0.1545605E+01  0.2648686E+05  0.1616160E+01  0.1087377E+05 -0.3032056E+01  0.1197159E+06  0.1772743E+01  0.2512261E+06  0.1454959E+01  0.1388540E+06  0.1626906E+01
  0.3375000E+00  0.7415766E+05 -0.1537947E+01  0.3572596E+05  0.1629716E+01  0.1433447E+05 -0.3001590E+01  0.1603306E+06  0.1783634E+01  0.3377315E+06  0.1465631E+01  0.1873456E+06  0.1644169E+01
  0.3850000E+00  0.9586910E+05 -0.1528746E+01  0.4630323E+05  0.1645670E+01  0.1800779E+05 -0.2968787E+01  0.2061957E+06  0.1795792E+01  0.4356367E+06  0.1478799E+01  0.2429292E+06  0.1664331E+01
  0.4325000E+00  0.1200846E+06 -0.1517731E+01  0.5816954E+05  0.1664277E+01  0.2178795E+05 -0.2934118E+01  0.2570059E+06  0.1809786E+01  0.5441153E+06  0.1494449E+01  0.3054118E+06  0.1687616E+01
  0.4800000E+00  0.1469315E+06 -0.1504562E+01  0.7143654E+05  0.1685891E+01  0.2558905E+05 -0.2898318E+01  0.3130754E+06  0.1825993E+01  0.6630383E+06  0.1512780E+01  0.3753828E+06  0.1714343E+01
  0.5275000E+00  0.1763772E+06 -0.1488813E+01  0.8613930E+05  0.1710952E+01  0.2934451E+05 -0.2861838E+01  0.3741176E+06  0.1845304E+01  0.7913086E+06  0.1533874E+01  0.4530308E+06  0.1744941E+01
  0.5750000E+00  0.2080776E+06 -0.1469957E+01  0.1021446E+06  0.1740036E+01  0.3273300E+05 -0.2823830E+01  0.4399028E+06  0.1867483E+01  0.9273003E+06  0.1558937E+01  0.5378961E+06  0.1779914E+01
  0.6225000E+00  0.2423619E+06 -0.1447419E+01  0.1197360E+06  0.1773798E+01  0.3594321E+05 -0.2786044E+01  0.5110928E+06  0.1894401E+01  0.1071155E+07  0.1587447E+01  0.6313262E+06  0.1819886E+01
  0.6700000E+00  0.2790531E+06 -0.1420531E+01  0.1388891E+06  0.1813003E+01  0.3869005E+05 -0.2747161E+01  0.5877148E+06  0.1926201E+01  0.1221752E+07  0.1620680E+01  0.7335634E+06  0.1865508E+01
  0.7175000E+00  0.3179637E+06 -0.1388579E+01  0.1596644E+06  0.1858559E+01  0.4110223E+05 -0.2708602E+01  0.6697666E+06  0.1964561E+01  0.1377088E+07  0.1658604E+01  0.8450337E+06  0.1917598E+01
  0.7650000E+00  0.3589222E+06 -0.1350830E+01  0.1820967E+06  0.1911438E+01  0.4292401E+05 -0.2668881E+01  0.7571398E+06  0.2009992E+01  0.1535969E+07  0.1702474E+01  0.9660954E+06  0.1977096E+01
  0.8125000E+00  0.4018956E+06 -0.1306554E+01  0.2063991E+06  0.1972627E+01  0.4447362E+05 -0.2629520E+01  0.8500037E+06  0.2064369E+01  0.1696654E+07  0.1752193E+01  0.1098113E+07  0.2044850E+01
  0.8600000E+00  0.4453554E+06 -0.1254980E+01  0.2318440E+06  0.2043266E+01  0.4523186E+05 -0.2588918E+01  0.9461565E+06  0.2127930E+01  0.1853470E+07  0.1809326E+01  0.1238185E+07  0.2121780E+01
  0.9075000E+00  0.4894244E+06 -0.1195615E+01  0.2587869E+06  0.2124244E+01  0.4569098E+05 -0.2547909E+01  0.1044734E+07  0.2202570E+01  0.2003772E+07  0.1873560E+01  0.1388143E+07  0.2208925E+01
  0.9550000E+00  0.5318521E+06 -0.1127949E+01  0.2860594E+06  0.2216419E+01  0.4568365E+05 -0.2506446E+01  0.1142922E+07  0.2288772E+01  0.2141754E+07  0.1945577E+01  0.1543054E+07  0.2306915E+01
  0.1002500E+01  0.5715829E+06 -0.1051943E+01  0.3132079E+06  0.2320207E+01  0.4508736E+05 -0.2463631E+01  0.1237118E+07  0.2386820E+01  0.2261293E+07  0.2025705E+01  0.1701368E+07  0.2416144E+01
  0.1050000E+01  0.6073829E+06 -0.9681132E+00  0.3396262E+06  0.2435603E+01  0.4423634E+05 -0.2419413E+01  0.1324074E+07  0.2497100E+01  0.2356970E+07  0.2113019E+01  0.1860429E+07  0.2536656E+01
  0.1097500E+01  0.6349182E+06 -0.8772637E+00  0.3625349E+06  0.2562006E+01  0.4300553E+05 -0.2373945E+01  0.1395339E+07  0.2618729E+01  0.2416722E+07  0.2206675E+01  0.2007245E+07  0.2667638E+01
  0.1145000E+01  0.6540066E+06 -0.7811171E+00  0.3817703E+06  0.2697963E+01  0.4129682E+05 -0.2327164E+01  0.1449167E+07  0.2749960E+01  0.2439968E+07  0.2305405E+01  0.2140980E+07  0.2807954E+01
  0.1192500E+01  0.6621533E+06 -0.6822893E+00  0.3953307E+06  0.2841370E+01  0.3936932E+05 -0.2277670E+01  0.1476731E+07  0.2889292E+01  0.2417347E+07  0.2406197E+01  0.2251475E+07  0.2955862E+01
  0.1240000E+01  0.6597047E+06 -0.5832190E+00  0.4032016E+06  0.2989935E+01  0.3730936E+05 -0.2225499E+01  0.1481214E+07  0.3034000E+01  0.2356337E+07  0.2506589E+01  0.2338418E+07  0.3108876E+01
  0.1287500E+01  0.6450716E+06 -0.4872282E+00  0.4036030E+06  0.3140645E+01  0.3488989E+05 -0.2174185E+01  0.1455927E+07 -0.3102218E+01  0.2251553E+07  0.2603511E+01  0.2391703E+07 -0.3018646E+01
  0.1335000E+01  0.6220216E+06 -0.3964146E+00  0.3985493E+06 -0.2990905E+01  0.3228063E+05 -0.2120551E+01  0.1411309E+07 -0.2954298E+01  0.2122887E+07  0.2694845E+01  0.2420823E+07 -0.2861869E+01
  0.1382500E+01  0.5919803E+06 -0.3138044E+00  0.3883328E+06 -0.2840252E+01  0.2962980E+05 -0.2065451E+01  0.1346417E+07 -0.2807014E+01  0.1972166E+07  0.2777614E+01  0.2426567E+07 -0.2704902E+01
  0.1430000E+01  0.5580884E+06 -0.2401016E+00  0.3746086E+06 -0.2690914E+01  0.2699771E+05 -0.2008963E+01  0.1271324E+07 -0.2661012E+01  0.1815898E+07  0.2850985E+01  0.2416566E+07 -0.2548230E+01
  0.1477500E+01  0.5208626E+06 -0.1774860E+00  0.3567719E+06 -0.2544036E+01  0.2436636E+05 -0.1954639E+01  0.1182570E+07 -0.2517455E+01  0.1652604E+07  0.2912845E+01  0.2385585E+07 -0.2392175E+01
  0.1525000E+01  0.4846875E+06 -0.1242156E+00  0.3374250E+06 -0.2397096E+01  0.2169461E+05 -0.1900351E+01  0.1093305E+07 -0.2373991E+01  0.1502654E+07  0.2965779E+01  0.2347235E+07 -0.2234827E+01
  0.1572500E+01  0.4492630E+06 -0.8134352E-01  0.3157519E+06 -0.2251517E+01  0.1918371E+05 -0.1846170E+01  0.9959175E+06 -0.2231434E+01  0.1356588E+07  0.3008096E+01  0.2295672E+07 -0.2075897E+01
  0.1620000E+01  0.4176707E+06 -0.4580892E-01  0.2941020E+06 -0.2105134E+01  0.1687919E+05 -0.1791852E+01  0.9029427E+06 -0.2088346E+01  0.1229255E+07  0.3043234E+01  0.2241756E+07 -0.1913286E+01
  0.1667500E+01  0.3882396E+06 -0.1400731E-01  0.2709506E+06 -0.1957516E+01  0.1469949E+05 -0.1738963E+01  0.8101849E+06 -0.1943892E+01  0.1114822E+07  0.3074818E+01  0.2174378E+07 -0.1747784E+01
  0.1715000E+01  0.3605582E+06  0.1397820E-01  0.2468464E+06 -0.1810939E+01  0.1275698E+05 -0.1687373E+01  0.7165702E+06 -0.1800367E+01  0.1007129E+07  0.3102166E+01  0.2091274E+07 -0.1579391E+01
  0.1762500E+01  0.3348597E+06  0.4238719E-01  0.2233013E+06 -0.1664329E+01  0.1088775E+05 -0.1638521E+01  0.6310602E+06 -0.1656327E+01  0.9127415E+06  0.3131609E+01  0.2002737E+07 -0.1407932E+01
  0.1810000E+01  0.3093910E+06  0.6876734E-01  0.1997309E+06 -0.1519778E+01  0.9290892E+04 -0.1590677E+01  0.5460444E+06 -0.1514274E+01  0.8180594E+06 -0.3125512E+01  0.1903968E+07 -0.1234424E+01
  0.1857500E+01  0.2850363E+06  0.9390117E-01  0.1777610E+06 -0.1375847E+01  0.7897400E+04 -0.1542412E+01  0.4707655E+06 -0.1372363E+01  0.7321184E+06 -0.3100680E+01  0.1804321E+07 -0.1058560E+01
  0.1905000E+01  0.2602905E+06  0.1140843E+00  0.1570326E+06 -0.1235013E+01  0.6647880E+04 -0.1496270E+01  0.4033270E+06 -0.1232555E+01  0.6503847E+06 -0.3080397E+01  0.1698340E+07 -0.8828349E+00
  0.1952500E+01  0.2354160E+06  0.1236885E+00  0.1377743E+06 -0.1096243E+01  0.5606777E+04 -0.1448006E+01  0.3417687E+06 -0.1094659E+01  0.5704589E+06 -0.3072947E+01  0.1587658E+07 -0.7074221E+00
  0.2000000E+01  0.2118147E+06  0.1208596E+00  0.1206965E+06 -0.9579222E+00  0.4673968E+04 -0.1403562E+01  0.2892769E+06 -0.9556026E+00  0.4981071E+06 -0.3076688E+01  0.1481017E+07 -0.5311112E+00
Zone t="Diffraction force - beta =   1.000 deg",I=    41,F=POINT
  0.1000000E+00  0.6551516E+04 -0.1563698E+01  0.3044152E+04  0.1583536E+01  0.1354829E+04 -0.3119089E+01  0.1408934E+05  0.1749854E+01  0.2996065E+05  0.1430201E+01  0.1599278E+05  0.1584878E+01
  0.1475000E+00  0.1427589E+05 -0.1560897E+01  0.6639425E+04  0.1588695E+01  0.2940255E+04 -0.3103866E+01  0.3063266E+05  0.1754630E+01  0.6531071E+05  0.1433646E+01  0.3489949E+05  0.1591597E+01
  0.1950000E+00  0.2491666E+05 -0.1556996E+01  0.1160457E+05  0.1595874E+01  0.5095790E+04 -0.3083799E+01  0.5320849E+05  0.1761340E+01  0.1138483E+06  0.1438438E+01  0.6097873E+05  0.1600937E+01
  0.2425000E+00  0.3834931E+05 -0.1551953E+01  0.1788453E+05  0.1605073E+01  0.7754754E+04 -0.3059510E+01  0.8154638E+05  0.1769234E+01  0.1752031E+06  0.1445218E+01  0.9399712E+05  0.1612872E+01
  0.2900000E+00  0.5462159E+05 -0.1545695E+01  0.2552400E+05  0.1616364E+01  0.1087400E+05 -0.3031832E+01  0.1154836E+06  0.1778731E+01  0.2491345E+06  0.1453672E+01  0.1341585E+06  0.1627468E+01
  0.3375000E+00  0.7352196E+05 -0.1538083E+01  0.3442958E+05  0.1629885E+01  0.1433483E+05 -0.3001272E+01  0.1546484E+06  0.1789499E+01  0.3349266E+06  0.1464328E+01  0.1810254E+06  0.1644828E+01
  0.3850000E+00  0.9504489E+05 -0.1528935E+01  0.4462664E+05  0.1645801E+01  0.1800827E+05 -0.2968358E+01  0.1988719E+06  0.1801484E+01  0.4320248E+06  0.1477481E+01  0.2347595E+06  0.1665099E+01
  0.4325000E+00  0.1190486E+06 -0.1517980E+01  0.5606838E+05  0.1664365E+01  0.2178852E+05 -0.2933562E+01  0.2478591E+06  0.1815267E+01  0.5396082E+06  0.1493115E+01  0.2951798E+06  0.1688507E+01
  0.4800000E+00  0.1456583E+06 -0.1504879E+01  0.6886365E+05  0.1685935E+01  0.2558957E+05 -0.2897617E+01  0.3019210E+06  0.1831225E+01  0.6575424E+06  0.1511426E+01  0.3628636E+06  0.1715369E+01
  0.5275000E+00  0.1748403E+06 -0.1489207E+01  0.8304751E+05  0.1710951E+01  0.2934482E+05 -0.2860977E+01  0.3607847E+06  0.1850267E+01  0.7847369E+06  0.1532494E+01  0.4380006E+06  0.1746116E+01
  0.5750000E+00  0.2062526E+06 -0.1470435E+01  0.9849185E+05  0.1739994E+01  0.3273276E+05 -0.2822788E+01  0.4242353E+06  0.1872134E+01  0.9195678E+06  0.1557527E+01  0.5201602E+06  0.1781254E+01
  0.6225000E+00  0.2402188E+06 -0.1447994E+01  0.1154733E+06  0.1773721E+01  0.3594199E+05 -0.2784804E+01  0.4929288E+06  0.1898741E+01  0.1062167E+07  0.1585993E+01  0.6106539E+06  0.1821407E+01
  0.6700000E+00  0.2765618E+06 -0.1421215E+01  0.1339686E+06  0.1812903E+01  0.3868727E+05 -0.2745707E+01  0.5668957E+06  0.1930218E+01  0.1211413E+07  0.1619172E+01  0.7097353E+06  0.1867227E+01
  0.7175000E+00  0.3150926E+06 -0.1389390E+01  0.1540390E+06  0.1858457E+01  0.4109713E+05 -0.2706916E+01  0.6461581E+06  0.1968279E+01  0.1365307E+07  0.1657018E+01  0.8178367E+06  0.1919532E+01
  0.7650000E+00  0.3556379E+06 -0.1351789E+01  0.1757192E+06  0.1911360E+01  0.4291578E+05 -0.2666948E+01  0.7306121E+06  0.2013428E+01  0.1522648E+07  0.1700788E+01  0.9353154E+06  0.1979267E+01
  0.8125000E+00  0.3981612E+06 -0.1307687E+01  0.1992188E+06  0.1972607E+01  0.4446129E+05 -0.2627329E+01  0.8204421E+06  0.2067583E+01  0.1681706E+07  0.1750373E+01  0.1063518E+07  0.2047279E+01
  0.8600000E+00  0.4411469E+06 -0.1256319E+01  0.2238320E+06  0.2043350E+01  0.4521427E+05 -0.2586452E+01  0.9135221E+06  0.2130960E+01  0.1836835E+07  0.1807339E+01  0.1199660E+07  0.2124488E+01
  0.9075000E+00  0.4847122E+06 -0.1197202E+01  0.2499056E+06  0.2124484E+01  0.4566697E+05 -0.2545162E+01  0.1009022E+07  0.2205497E+01  0.1985426E+07  0.1871357E+01  0.1345521E+07  0.2211939E+01
  0.9550000E+00  0.5266302E+06 -0.1129831E+01  0.2763059E+06  0.2216872E+01  0.4565208E+05 -0.2503417E+01  0.1104207E+07  0.2291674E+01  0.2121722E+07  0.1943103E+01  0.1496339E+07  0.2310258E+01
  0.1002500E+01  0.5658569E+06 -0.1054174E+01  0.3025913E+06  0.2320937E+01  0.4504723E+05 -0.2460320E+01  0.1195569E+07  0.2389775E+01  0.2239680E+07  0.2022902E+01  0.1650619E+07  0.2419837E+01
  0.1050000E+01  0.6011749E+06 -0.9707601E+00  0.3281721E+06  0.2436673E+01  0.4418701E+05 -0.2415834E+01  0.1279954E+07  0.2500196E+01  0.2333957E+07  0.2109813E+01  0.1805773E+07  0.2540718E+01
  0.1097500E+01  0.6283074E+06 -0.8803921E+00  0.3503464E+06  0.2563480E+01  0.4294667E+05 -0.2370118E+01  0.1349138E+07  0.2622049E+01  0.2392658E+07  0.2202991E+01  0.1949180E+07  0.2672076E+01
  0.1145000E+01  0.6470838E+06 -0.7848023E+00  0.3689548E+06  0.2699893E+01  0.4122848E+05 -0.2323116E+01  0.1401404E+07  0.2753565E+01  0.2415248E+07  0.2301166E+01  0.2079998E+07  0.2812774E+01
  0.1192500E+01  0.6550524E+06 -0.6866111E+00  0.3820479E+06  0.2843803E+01  0.3929280E+05 -0.2273441E+01  0.1428154E+07  0.2893253E+01  0.2392538E+07  0.2401317E+01  0.2188289E+07  0.2961067E+01
  0.1240000E+01  0.6525694E+06 -0.5882589E+00  0.3896166E+06  0.2992907E+01  0.3722616E+05 -0.2221114E+01  0.1432484E+07  0.3038366E+01  0.2331976E+07  0.2500982E+01  0.2273744E+07  0.3114448E+01
  0.1287500E+01  0.6380773E+06 -0.4930626E+00  0.3899303E+06 -0.3139007E+01  0.3480166E+05 -0.2169687E+01  0.1407890E+07 -0.3097417E+01  0.2228261E+07  0.2597098E+01  0.2326462E+07 -0.3012726E+01
  0.1335000E+01  0.6153148E+06 -0.4031231E+00  0.3849492E+06 -0.2986783E+01  0.3219014E+05 -0.2115973E+01  0.1364500E+07 -0.2949027E+01  0.2101119E+07  0.2687548E+01  0.2355633E+07 -0.2855634E+01
  0.1382500E+01  0.5856999E+06 -0.3214624E+00  0.3749587E+06 -0.2835517E+01  0.2953932E+05 -0.2060814E+01  0.1301424E+07 -0.2801236E+01  0.1952370E+07  0.2769364E+01  0.2361987E+07 -0.2698368E+01
  0.1430000E+01  0.5523424E+06 -0.2487681E+00  0.3615732E+06 -0.2685549E+01  0.2690924E+05 -0.2004271E+01  0.1228456E+07 -0.2654704E+01  0.1798340E+07  0.2841732E+01  0.2352921E+07 -0.2541432E+01
  0.1477500E+01  0.5157500E+06 -0.1871791E+00  0.3442044E+06 -0.2537999E+01  0.2428133E+05 -0.1949928E+01  0.1142250E+07 -0.2510571E+01  0.1637519E+07  0.2902583E+01  0.2323278E+07 -0.2385121E+01
  0.1525000E+01  0.4802575E+06 -0.1349093E+00  0.3253792E+06 -0.2390323E+01  0.2161558E+05 -0.1895628E+01  0.1055553E+07 -0.2366469E+01  0.1490039E+07  0.2954557E+01  0.2286264E+07 -0.2227526E+01
  0.1572500E+01  0.4455441E+06 -0.9294428E-01  0.3043069E+06 -0.2243930E+01  0.1911145E+05 -0.1841426E+01  0.9610127E+06 -0.2223181E+01  0.1346444E+07  0.2996033E+01  0.2236149E+07 -0.2068337E+01
  0.1620000E+01  0.4146381E+06 -0.5817131E-01  0.2832668E+06 -0.2096634E+01  0.1681381E+05 -0.1787074E+01  0.8707782E+06 -0.2079265E+01  0.1221360E+07  0.3030497E+01  0.2183456E+07 -0.1905438E+01
  0.1667500E+01  0.3858475E+06 -0.2692706E-01  0.2607765E+06 -0.1947998E+01  0.1464176E+05 -0.1734114E+01  0.7807642E+06 -0.1933864E+01  0.1108897E+07  0.3061619E+01  0.2117257E+07 -0.1739652E+01
  0.1715000E+01  0.3587253E+06  0.6863428E-03  0.2373713E+06 -0.1800263E+01  0.1270638E+05 -0.1682451E+01  0.6899618E+06 -0.1789235E+01  0.1002846E+07  0.3088689E+01  0.2035324E+07 -0.1570929E+01
  0.1762500E+01  0.3334974E+06  0.2884142E-01  0.2145220E+06 -0.1652398E+01  0.1084486E+05 -0.1633449E+01  0.6070400E+06 -0.1643993E+01  0.9097413E+06  0.3117962E+01  0.1947720E+07 -0.1399130E+01
  0.1810000E+01  0.3084167E+06  0.5500294E-01  0.1916617E+06 -0.1506430E+01  0.9254278E+04 -0.1585400E+01  0.5246680E+06 -0.1500524E+01  0.8160711E+06 -0.3139298E+01  0.1849772E+07 -0.1225248E+01
  0.1857500E+01  0.2843906E+06  0.7986568E-01  0.1703649E+06 -0.1360934E+01  0.7866038E+04 -0.1536883E+01  0.4517662E+06 -0.1357018E+01  0.7309274E+06 -0.3114673E+01  0.1750630E+07 -0.1048964E+01
  0.1905000E+01  0.2599402E+06  0.9967250E-01  0.1502943E+06 -0.1218379E+01  0.6621183E+04 -0.1490405E+01  0.3865193E+06 -0.1215415E+01  0.6498635E+06 -0.3094722E+01  0.1645071E+07 -0.8727921E+00
  0.1952500E+01  0.2353522E+06  0.1088081E+00  0.1316741E+06 -0.1077607E+01  0.5583706E+04 -0.1441784E+01  0.3270559E+06 -0.1075341E+01  0.5705518E+06 -0.3087702E+01  0.1534819E+07 -0.6968553E+00
  0.2000000E+01  0.2120488E+06  0.1054620E+00  0.1151821E+06 -0.9370255E+00  0.4654025E+04 -0.1396877E+01  0.2764176E+06 -0.9337915E+00  0.4988109E+06 -0.3091938E+01  0.1428438E+07 -0.5199472E+00
Zone t="Diffraction force - beta =   2.000 deg",I=    41,F=POINT
  0.1000000E+00  0.6493329E+04 -0.1563672E+01  0.2927790E+04  0.1583850E+01  0.1354833E+04 -0.3119086E+01  0.1357329E+05  0.1756549E+01  0.2969773E+05  0.1428908E+01  0.1542470E+05  0.1585216E+01
  0.1475000E+00  0.1414898E+05 -0.1560891E+01  0.6385854E+04  0.1588987E+01  0.2940278E+04 -0.3103833E+01  0.2950928E+05  0.1761297E+01  0.6473855E+05  0.1432341E+01  0.3366189E+05  0.1591969E+01
  0.1950000E+00  0.2469488E+05 -0.1557017E+01  0.1116195E+05  0.1596138E+01  0.5095855E+04 -0.3083720E+01  0.5125369E+05  0.1767972E+01  0.1128534E+06  0.1437115E+01  0.5881818E+05  0.1601358E+01
  0.2425000E+00  0.3800750E+05 -0.1552009E+01  0.1720321E+05  0.1605300E+01  0.7754889E+04 -0.3059372E+01  0.7854351E+05  0.1775792E+01  0.1736764E+06  0.1443879E+01  0.9067205E+05  0.1613354E+01
  0.2900000E+00  0.5413379E+05 -0.1545793E+01  0.2455337E+05  0.1616546E+01  0.1087425E+05 -0.3031618E+01  0.1112206E+06  0.1785189E+01  0.2469696E+06  0.1452315E+01  0.1294221E+06  0.1628024E+01
  0.3375000E+00  0.7286391E+05 -0.1538231E+01  0.3312271E+05  0.1630015E+01  0.1433521E+05 -0.3000969E+01  0.1489247E+06  0.1795811E+01  0.3320234E+06  0.1462952E+01  0.1746503E+06  0.1645470E+01
  0.3850000E+00  0.9419176E+05 -0.1529140E+01  0.4293651E+05  0.1645872E+01  0.1800879E+05 -0.2967947E+01  0.1914936E+06  0.1807593E+01  0.4282870E+06  0.1476088E+01  0.2265183E+06  0.1665838E+01
  0.4325000E+00  0.1179765E+06 -0.1518250E+01  0.5395016E+05  0.1664372E+01  0.2178912E+05 -0.2933028E+01  0.2386431E+06  0.1821130E+01  0.5349439E+06  0.1491704E+01  0.2848581E+06  0.1689354E+01
  0.4800000E+00  0.1443408E+06 -0.1505222E+01  0.6626995E+05  0.1685873E+01  0.2559015E+05 -0.2896941E+01  0.2906811E+06  0.1836797E+01  0.6518563E+06  0.1509992E+01  0.3502347E+06  0.1716337E+01
  0.5275000E+00  0.1732504E+06 -0.1489632E+01  0.7993070E+05  0.1710818E+01  0.2934518E+05 -0.2860146E+01  0.3473473E+06  0.1855527E+01  0.7779382E+06  0.1531030E+01  0.4228377E+06  0.1747218E+01
  0.5750000E+00  0.2043654E+06 -0.1470952E+01  0.9480970E+05  0.1739792E+01  0.3273258E+05 -0.2821781E+01  0.4084446E+06  0.1877028E+01  0.9115700E+06  0.1556030E+01  0.5022672E+06  0.1782503E+01
  0.6225000E+00  0.2380037E+06 -0.1448614E+01  0.1111763E+06  0.1773456E+01  0.3594084E+05 -0.2783605E+01  0.4746190E+06  0.1903272E+01  0.1052875E+07  0.1584448E+01  0.5897971E+06  0.1822819E+01
  0.6700000E+00  0.2739881E+06 -0.1421954E+01  0.1290085E+06  0.1812587E+01  0.3868461E+05 -0.2744300E+01  0.5459082E+06  0.1934370E+01  0.1200729E+07  0.1617565E+01  0.6856941E+06  0.1868818E+01
  0.7175000E+00  0.3121282E+06 -0.1390265E+01  0.1483685E+06  0.1858109E+01  0.4109220E+05 -0.2705283E+01  0.6223567E+06  0.1972075E+01  0.1353137E+07  0.1655328E+01  0.7903948E+06  0.1921320E+01
  0.7650000E+00  0.3522495E+06 -0.1352820E+01  0.1692908E+06  0.1911008E+01  0.4290771E+05 -0.2665074E+01  0.7038650E+06  0.2016889E+01  0.1508899E+07  0.1698992E+01  0.9042552E+06  0.1981274E+01
  0.8125000E+00  0.3943117E+06 -0.1308904E+01  0.1919810E+06  0.1972287E+01  0.4444911E+05 -0.2625203E+01  0.7906352E+06  0.2070768E+01  0.1666286E+07  0.1748435E+01  0.1028605E+07  0.2049526E+01
  0.8600000E+00  0.4368130E+06 -0.1257755E+01  0.2157560E+06  0.2043110E+01  0.4519680E+05 -0.2584058E+01  0.8806166E+06  0.2133912E+01  0.1819697E+07  0.1805224E+01  0.1160773E+07  0.2126997E+01
  0.9075000E+00  0.4798656E+06 -0.1198899E+01  0.2409536E+06  0.2124376E+01  0.4564312E+05 -0.2542495E+01  0.9730104E+06  0.2208301E+01  0.1966545E+07  0.1869013E+01  0.1302489E+07  0.2214737E+01
  0.9550000E+00  0.5212663E+06 -0.1131838E+01  0.2664746E+06  0.2216960E+01  0.4562065E+05 -0.2500473E+01  0.1065168E+07  0.2294413E+01  0.2101136E+07  0.1940476E+01  0.1449160E+07  0.2313368E+01
  0.1002500E+01  0.5599839E+06 -0.1056546E+01  0.2918898E+06  0.2321287E+01  0.4500719E+05 -0.2457101E+01  0.1153672E+07  0.2392533E+01  0.2217502E+07  0.2019932E+01  0.1599351E+07  0.2423282E+01
  0.1050000E+01  0.5948186E+06 -0.9735647E+00  0.3166257E+06  0.2437350E+01  0.4413773E+05 -0.2412356E+01  0.1235462E+07  0.2503065E+01  0.2310385E+07  0.2106425E+01  0.1750530E+07  0.2544514E+01
  0.1097500E+01  0.6215517E+06 -0.8836963E+00  0.3380595E+06  0.2564550E+01  0.4288789E+05 -0.2366400E+01  0.1302546E+07  0.2625118E+01  0.2368058E+07  0.2199110E+01  0.1890462E+07  0.2676233E+01
  0.1145000E+01  0.6400239E+06 -0.7886817E+00  0.3560344E+06  0.2701414E+01  0.4116019E+05 -0.2319186E+01  0.1353234E+07  0.2756898E+01  0.2390030E+07  0.2296714E+01  0.2018290E+07  0.2817294E+01
  0.1192500E+01  0.6478281E+06 -0.6911442E+00  0.3686547E+06  0.2845818E+01  0.3921623E+05 -0.2269339E+01  0.1379158E+07  0.2896923E+01  0.2367296E+07  0.2396209E+01  0.2124300E+07  0.2965951E+01
  0.1240000E+01  0.6453291E+06 -0.5935256E+00  0.3759175E+06  0.2995454E+01  0.3714290E+05 -0.2216864E+01  0.1383332E+07  0.3042425E+01  0.2307253E+07  0.2495133E+01  0.2208186E+07  0.3119678E+01
  0.1287500E+01  0.6310008E+06 -0.4991363E+00  0.3761411E+06 -0.3135907E+01  0.3471334E+05 -0.2165336E+01  0.1359430E+07 -0.3092941E+01  0.2204697E+07  0.2590433E+01  0.2260255E+07 -0.3007173E+01
  0.1335000E+01  0.6085502E+06 -0.4100775E+00  0.3712316E+06 -0.2983104E+01  0.3209957E+05 -0.2111552E+01  0.1317277E+07 -0.2944098E+01  0.2079166E+07  0.2679997E+01  0.2289396E+07 -0.2849795E+01
  0.1382500E+01  0.5793881E+06 -0.3293640E+00  0.3614673E+06 -0.2831238E+01  0.2944876E+05 -0.2056346E+01  0.1256026E+07 -0.2795822E+01  0.1932481E+07  0.2760866E+01  0.2296275E+07 -0.2692263E+01
  0.1430000E+01  0.5465885E+06 -0.2576665E+00  0.3484217E+06 -0.2680654E+01  0.2682070E+05 -0.1999759E+01  0.1185197E+07 -0.2648778E+01  0.1780765E+07  0.2832248E+01  0.2288053E+07 -0.2535097E+01
  0.1477500E+01  0.5106506E+06 -0.1970769E+00  0.3315238E+06 -0.2532449E+01  0.2419627E+05 -0.1945403E+01  0.1101559E+07 -0.2504093E+01  0.1622481E+07  0.2892123E+01  0.2259660E+07 -0.2378569E+01
  0.1525000E+01  0.4758555E+06 -0.1457653E+00  0.3132240E+06 -0.2384054E+01  0.2153653E+05 -0.1891101E+01  0.1017451E+07 -0.2359380E+01  0.1477512E+07  0.2943186E+01  0.2223890E+07 -0.2220773E+01
  0.1572500E+01  0.4418608E+06 -0.1046489E+00  0.2927575E+06 -0.2236866E+01  0.1903917E+05 -0.1836885E+01  0.9257841E+06 -0.2215386E+01  0.1336407E+07  0.2983885E+01  0.2175137E+07 -0.2061370E+01
  0.1620000E+01  0.4116415E+06 -0.7056566E-01  0.2723335E+06 -0.2088675E+01  0.1674840E+05 -0.1782506E+01  0.8383185E+06 -0.2070667E+01  0.1213563E+07  0.3017751E+01  0.2123575E+07 -0.1898230E+01
  0.1667500E+01  0.3834853E+06 -0.3980089E-01  0.2505125E+06 -0.1939037E+01  0.1458396E+05 -0.1729480E+01  0.7510786E+06 -0.1924342E+01  0.1103045E+07  0.3048489E+01  0.2058476E+07 -0.1732211E+01
  0.1715000E+01  0.3569115E+06 -0.1248408E-01  0.2278159E+06 -0.1790159E+01  0.1265567E+05 -0.1677746E+01  0.6631247E+06 -0.1778632E+01  0.9986006E+06  0.3075359E+01  0.1977651E+07 -0.1563208E+01
  0.1762500E+01  0.3321429E+06  0.1548821E-01  0.2056735E+06 -0.1641052E+01  0.1080182E+05 -0.1628597E+01  0.5828284E+06 -0.1632209E+01  0.9067448E+06  0.3104530E+01  0.1890927E+07 -0.1391123E+01
  0.1810000E+01  0.3074397E+06  0.4149625E-01  0.1835355E+06 -0.1493676E+01  0.9217461E+04 -0.1580344E+01  0.5031402E+06 -0.1487338E+01  0.8140592E+06  0.3130380E+01  0.1793767E+07 -0.1216918E+01
  0.1857500E+01  0.2837351E+06  0.6615369E-01  0.1629249E+06 -0.1346621E+01  0.7834442E+04 -0.1531577E+01  0.4326544E+06 -0.1342247E+01  0.7296952E+06 -0.3128325E+01  0.1695107E+07 -0.1040265E+01
  0.1905000E+01  0.2595755E+06  0.8566124E-01  0.1435252E+06 -0.1202345E+01  0.6594204E+04 -0.1484764E+01  0.3696369E+06 -0.1198854E+01  0.6492923E+06 -0.3108629E+01  0.1589969E+07 -0.8636956E+00
  0.1952500E+01  0.2352711E+06  0.9442619E-01  0.1255565E+06 -0.1059563E+01  0.5560313E+04 -0.1435784E+01  0.3123047E+06 -0.1056589E+01  0.5705902E+06 -0.3101944E+01  0.1480167E+07 -0.6872805E+00
  0.2000000E+01  0.2122611E+06  0.9069382E-01  0.1096632E+06 -0.9166993E+00  0.4633738E+04 -0.1390422E+01  0.2635526E+06 -0.9125262E+00  0.4994526E+06 -0.3106546E+01  0.1374080E+07 -0.5098143E+00
Zone t="Diffraction force - beta =   3.000 deg",I=    41,F=POINT
  0.1000000E+00  0.6433163E+04 -0.1563646E+01  0.2810539E+04  0.1584188E+01  0.1354839E+04 -0.3119088E+01  0.1305388E+05  0.1763827E+01  0.2942600E+05  0.1427548E+01  0.1485195E+05  0.1585577E+01
  0.1475000E+00  0.1401778E+05 -0.1560885E+01  0.6130339E+04  0.1589296E+01  0.2940300E+04 -0.3103805E+01  0.2837855E+05  0.1768540E+01  0.6414724E+05  0.1430966E+01  0.3241405E+05  0.1592359E+01
  0.1950000E+00  0.2446556E+05 -0.1557040E+01  0.1071594E+05  0.1596407E+01  0.5095918E+04 -0.3083649E+01  0.4928611E+05  0.1775170E+01  0.1118253E+06  0.1435723E+01  0.5663983E+05  0.1601791E+01
  0.2425000E+00  0.3765411E+05 -0.1552069E+01  0.1651665E+05  0.1605519E+01  0.7755032E+04 -0.3059243E+01  0.7552062E+05  0.1782902E+01  0.1720986E+06  0.1442469E+01  0.8731933E+05  0.1613841E+01
  0.2900000E+00  0.5362948E+05 -0.1545899E+01  0.2357527E+05  0.1616703E+01  0.1087450E+05 -0.3031417E+01  0.1069289E+06  0.1792179E+01  0.2447323E+06  0.1450884E+01  0.1246463E+06  0.1628575E+01
  0.3375000E+00  0.7218367E+05 -0.1538390E+01  0.3180579E+05  0.1630102E+01  0.1433561E+05 -0.3000680E+01  0.1431621E+06  0.1802629E+01  0.3290235E+06  0.1461501E+01  0.1682221E+06  0.1646094E+01
  0.3850000E+00  0.9331004E+05 -0.1529361E+01  0.4123334E+05  0.1645878E+01  0.1800932E+05 -0.2967554E+01  0.1840640E+06  0.1814175E+01  0.4244239E+06  0.1474618E+01  0.2182084E+06  0.1666547E+01
  0.4325000E+00  0.1168685E+06 -0.1518540E+01  0.5181564E+05  0.1664290E+01  0.2178975E+05 -0.2932515E+01  0.2293620E+06  0.1827428E+01  0.5301241E+06  0.1490212E+01  0.2744501E+06  0.1690158E+01
  0.4800000E+00  0.1429796E+06 -0.1505591E+01  0.6365616E+05  0.1685696E+01  0.2559077E+05 -0.2896292E+01  0.2793598E+06  0.1842759E+01  0.6459806E+06  0.1508476E+01  0.3374996E+06  0.1717245E+01
  0.5275000E+00  0.1716082E+06 -0.1490088E+01  0.7678993E+05  0.1710542E+01  0.2934561E+05 -0.2859345E+01  0.3338113E+06  0.1861126E+01  0.7709141E+06  0.1529480E+01  0.4075474E+06  0.1748242E+01
  0.5750000E+00  0.2024167E+06 -0.1471507E+01  0.9109920E+05  0.1739418E+01  0.3273251E+05 -0.2820809E+01  0.3925355E+06  0.1882205E+01  0.9033088E+06  0.1554443E+01  0.4842228E+06  0.1783657E+01
  0.6225000E+00  0.2357170E+06 -0.1449281E+01  0.1068463E+06  0.1772988E+01  0.3593980E+05 -0.2782447E+01  0.4561707E+06  0.1908026E+01  0.1043280E+07  0.1582808E+01  0.5687634E+06  0.1824118E+01
  0.6700000E+00  0.2713327E+06 -0.1422746E+01  0.1240105E+06  0.1812036E+01  0.3868205E+05 -0.2742939E+01  0.5247589E+06  0.1938684E+01  0.1189701E+07  0.1615860E+01  0.6614474E+06  0.1870277E+01
  0.7175000E+00  0.3090712E+06 -0.1391202E+01  0.1426549E+06  0.1857495E+01  0.4108741E+05 -0.2703702E+01  0.5983700E+06  0.1975972E+01  0.1340582E+07  0.1653532E+01  0.7627164E+06  0.1922956E+01
  0.7650000E+00  0.3487579E+06 -0.1353925E+01  0.1628136E+06  0.1910359E+01  0.4289975E+05 -0.2663258E+01  0.6769088E+06  0.2020387E+01  0.1494724E+07  0.1697084E+01  0.8729242E+06  0.1983111E+01
  0.8125000E+00  0.3903482E+06 -0.1310206E+01  0.1846887E+06  0.1971642E+01  0.4443711E+05 -0.2623143E+01  0.7605940E+06  0.2073934E+01  0.1650405E+07  0.1746376E+01  0.9933813E+06  0.2051585E+01
  0.8600000E+00  0.4323551E+06 -0.1259288E+01  0.2076190E+06  0.2042519E+01  0.4517952E+05 -0.2581735E+01  0.8474498E+06  0.2136789E+01  0.1802060E+07  0.1802978E+01  0.1121535E+07  0.2129298E+01
  0.9075000E+00  0.4748858E+06 -0.1200707E+01  0.2319342E+06  0.2123896E+01  0.4561946E+05 -0.2539906E+01  0.9367148E+06  0.2210983E+01  0.1947137E+07  0.1866528E+01  0.1259059E+07  0.2217309E+01
  0.9550000E+00  0.5157621E+06 -0.1133971E+01  0.2565692E+06  0.2216656E+01  0.4558939E+05 -0.2497616E+01  0.1025818E+07  0.2296988E+01  0.2080004E+07  0.1937695E+01  0.1401535E+07  0.2316236E+01
  0.1002500E+01  0.5539663E+06 -0.1059060E+01  0.2811077E+06  0.2321229E+01  0.4496734E+05 -0.2453977E+01  0.1111442E+07  0.2395088E+01  0.2194768E+07  0.2016794E+01  0.1547579E+07  0.2426468E+01
  0.1050000E+01  0.5883164E+06 -0.9765292E+00  0.3049919E+06  0.2437607E+01  0.4408860E+05 -0.2408979E+01  0.1190616E+07  0.2505702E+01  0.2286261E+07  0.2102853E+01  0.1694722E+07  0.2548038E+01
  0.1097500E+01  0.6146537E+06 -0.8871781E+00  0.3256788E+06  0.2565192E+01  0.4282916E+05 -0.2362791E+01  0.1255581E+07  0.2627930E+01  0.2342930E+07  0.2195029E+01  0.1831114E+07  0.2680100E+01
  0.1145000E+01  0.6328306E+06 -0.7927564E+00  0.3430151E+06  0.2702499E+01  0.4109191E+05 -0.2315374E+01  0.1304678E+07  0.2759952E+01  0.2364330E+07  0.2292046E+01  0.1955880E+07  0.2821508E+01
  0.1192500E+01  0.6404839E+06 -0.6958905E+00  0.3551584E+06  0.2847390E+01  0.3913971E+05 -0.2265363E+01  0.1329768E+07  0.2900295E+01  0.2341629E+07  0.2390870E+01  0.2059536E+07  0.2970510E+01
  0.1240000E+01  0.6379873E+06 -0.5990207E+00  0.3621111E+06  0.2997553E+01  0.3705963E+05 -0.2212752E+01  0.1333778E+07  0.3046168E+01  0.2282182E+07  0.2489041E+01  0.2141775E+07  0.3124562E+01
  0.1287500E+01  0.6238450E+06 -0.5054485E+00  0.3622429E+06 -0.3133263E+01  0.3462504E+05 -0.2161130E+01  0.1310575E+07 -0.3088798E+01  0.2180870E+07  0.2583518E+01  0.2193117E+07 -0.3001991E+01
  0.1335000E+01  0.6017314E+06 -0.4172754E+00  0.3574043E+06 -0.2979890E+01  0.3200902E+05 -0.2107286E+01  0.1269662E+07 -0.2939521E+01  0.2057041E+07  0.2672193E+01  0.2222149E+07 -0.2844355E+01