VARIABLES="w (rad/s)"
"abs(F   1   1)" "angle(F   1   1)"
"abs(F   1   2)" "angle(F   1   2)"
"abs(F   1   3)" "angle(F   1   3)"
"abs(F   1   4)" "angle(F   1   4)"
"abs(F   1   5)" "angle(F   1   5)"
"abs(F   1   6)" "angle(F   1   6)"
Zone t="Diffraction force - beta =   0.000 deg",I=    41,F=POINT
  0.1000000E+00  0.6607709E+04 -0.1563722E+01  0.3159587E+04  0.1583243E+01  0.1354824E+04 -0.3119095E+01  0.1460182E+05  0.1743676E+01  0.3021472E+05  0.1431428E+01  0.1655599E+05  0.1584560E+01
  0.1475000E+00  0.1439845E+05 -0.1560903E+01  0.6890968E+04  0.1588416E+01  0.2940233E+04 -0.3103904E+01  0.3174817E+05  0.1748473E+01  0.6586358E+05  0.1434885E+01  0.3612639E+05  0.1591240E+01
  0.1950000E+00  0.2513087E+05 -0.1556977E+01  0.1204364E+05  0.1595615E+01  0.5095729E+04 -0.3083884E+01  0.5514947E+05  0.1755209E+01  0.1148097E+06  0.1439692E+01  0.6312055E+05  0.1600525E+01
  0.2425000E+00  0.3867946E+05 -0.1551902E+01  0.1856042E+05  0.1604838E+01  0.7754622E+04 -0.3059657E+01  0.8452799E+05  0.1763162E+01  0.1766783E+06  0.1446487E+01  0.9729366E+05  0.1612392E+01
  0.2900000E+00  0.5509278E+05 -0.1545605E+01  0.2648686E+05  0.1616160E+01  0.1087377E+05 -0.3032056E+01  0.1197159E+06  0.1772743E+01  0.2512261E+06  0.1454959E+01  0.1388540E+06  0.1626906E+01
  0.3375000E+00  0.7415766E+05 -0.1537947E+01  0.3572596E+05  0.1629716E+01  0.1433447E+05 -0.3001590E+01  0.1603306E+06  0.1783634E+01  0.3377315E+06  0.1465631E+01  0.1873456E+06  0.1644169E+01
  0.3850000E+00  0.9586910E+05 -0.1528746E+01  0.4630323E+05  0.1645670E+01  0.1800779E+05 -0.2968787E+01  0.2061957E+06  0.1795792E+01  0.4356367E+06  0.1478799E+01  0.2429292E+06  0.1664331E+01
  0.4325000E+00  0.1200846E+06 -0.1517731E+01  0.5816954E+05  0.1664277E+01  0.2178795E+05 -0.2934118E+01  0.2570059E+06  0.1809786E+01  0.5441153E+06  0.1494449E+01  0.3054118E+06  0.1687616E+01
  0.4800000E+00  0.1469315E+06 -0.1504562E+01  0.7143654E+05  0.1685891E+01  0.2558905E+05 -0.2898318E+01  0.3130754E+06  0.1825993E+01  0.6630383E+06  0.1512780E+01  0.3753828E+06  0.1714343E+01
  0.5275000E+00  0.1763772E+06 -0.1488813E+01  0.8613930E+05  0.1710952E+01  0.2934451E+05 -0.2861838E+01  0.3741176E+06  0.1845304E+01  0.7913086E+06  0.1533874E+01  0.4530308E+06  0.1744941E+01
  0.5750000E+00  0.2080776E+06 -0.1469957E+01  0.1021446E+06  0.1740036E+01  0.3273300E+05 -0.2823830E+01  0.4399028E+06  0.1867483E+01  0.9273003E+06  0.1558937E+01  0.5378961E+06  0.1779914E+01
  0.6225000E+00  0.2423619E+06 -0.1447419E+01  0.1197360E+06  0.1773798E+01  0.3594321E+05 -0.2786044E+01  0.5110928E+06  0.1894401E+01  0.1071155E+07  0.1587447E+01  0.6313262E+06  0.1819886E+01
  0.6700000E+00  0.2790531E+06 -0.1420531E+01  0.1388891E+06  0.1813003E+01  0.3869005E+05 -0.2747161E+01  0.5877148E+06  0.1926201E+01  0.1221752E+07  0.1620680E+01  0.7335634E+06  0.1865508E+01
  0.7175000E+00  0.3179637E+06 -0.1388579E+01  0.1596644E+06  0.1858559E+01  0.4110223E+05 -0.2708602E+01  0.6697666E+06  0.1964561E+01  0.1377088E+07  0.1658604E+01  0.8450337E+06  0.1917598E+01
  0.7650000E+00  0.3589222E+06 -0.1350830E+01  0.1820967E+06  0.1911438E+01  0.4292401E+05 -0.2668881E+01  0.7571398E+06  0.2009992E+01  0.1535969E+07  0.1702474E+01  0.9660954E+06  0.1977096E+01
  0.8125000E+00  0.4018956E+06 -0.1306554E+01  0.2063991E+06  0.1972627E+01  0.4447362E+05 -0.2629520E+01  0.8500037E+06  0.2064369E+01  0.1696654E+07  0.1752193E+01  0.1098113E+07  0.2044850E+01
  0.8600000E+00  0.4453554E+06 -0.1254980E+01  0.2318440E+06  0.2043266E+01  0.4523186E+05 -0.2588918E+01  0.9461565E+06  0.2127930E+01  0.1853470E+07  0.1809326E+01  0.1238185E+07  0.2121780E+01
  0.9075000E+00  0.4894244E+06 -0.1195615E+01  0.2587869E+06  0.2124244E+01  0.4569098E+05 -0.2547909E+01  0.1044734E+07  0.2202570E+01  0.2003772E+07  0.1873560E+01  0.1388143E+07  0.2208925E+01
  0.9550000E+00  0.5318521E+06 -0.1127949E+01  0.2860594E+06  0.2216419E+01  0.4568365E+05 -0.2506446E+01  0.1142922E+07  0.2288772E+01  0.2141754E+07  0.1945577E+01  0.1543054E+07  0.2306915E+01
  0.1002500E+01  0.5715829E+06 -0.1051943E+01  0.3132079E+06  0.2320207E+01  0.4508736E+05 -0.2463631E+01  0.1237118E+07  0.2386820E+01  0.2261293E+07  0.2025705E+01  0.1701368E+07  0.2416144E+01
  0.1050000E+01  0.6073829E+06 -0.9681132E+00  0.3396262E+06  0.2435603E+01  0.4423634E+05 -0.2419413E+01  0.1324074E+07  0.2497100E+01  0.2356970E+07  0.2113019E+01  0.1860429E+07  0.2536656E+01
  0.1097500E+01  0.6349182E+06 -0.8772637E+00  0.3625349E+06  0.2562006E+01  0.4300553E+05 -0.2373945E+01  0.1395339E+07  0.2618729E+01  0.2416722E+07  0.2206675E+01  0.2007245E+07  0.2667638E+01
  0.1145000E+01  0.6540066E+06 -0.7811171E+00  0.3817703E+06  0.2697963E+01  0.4129682E+05 -0.2327164E+01  0.1449167E+07  0.2749960E+01  0.2439968E+07  0.2305405E+01  0.2140980E+07  0.2807954E+01
  0.1192500E+01  0.6621533E+06 -0.6822893E+00  0.3953307E+06  0.2841370E+01  0.3936932E+05 -0.2277670E+01  0.1476731E+07  0.2889292E+01  0.2417347E+07  0.2406197E+01  0.2251475E+07  0.2955862E+01
  0.1240000E+01  0.6597047E+06 -0.5832190E+00  0.4032016E+06  0.2989935E+01  0.3730936E+05 -0.2225499E+01  0.1481214E+07  0.3034000E+01  0.2356337E+07  0.2506589E+01  0.2338418E+07  0.3108876E+01
  0.1287500E+01  0.6450716E+06 -0.4872282E+00  0.4036030E+06  0.3140645E+01  0.3488989E+05 -0.2174185E+01  0.1455927E+07 -0.3102218E+01  0.2251553E+07  0.2603511E+01  0.2391703E+07 -0.3018646E+01
  0.1335000E+01  0.6220216E+06 -0.3964146E+00  0.3985493E+06 -0.2990905E+01  0.3228063E+05 -0.2120551E+01  0.1411309E+07 -0.2954298E+01  0.2122887E+07  0.2694845E+01  0.2420823E+07 -0.2861869E+01
  0.1382500E+01  0.5919803E+06 -0.3138044E+00  0.3883328E+06 -0.2840252E+01  0.2962980E+05 -0.2065451E+01  0.1346417E+07 -0.2807014E+01  0.1972166E+07  0.2777614E+01  0.2426567E+07 -0.2704902E+01
  0.1430000E+01  0.5580884E+06 -0.2401016E+00  0.3746086E+06 -0.2690914E+01  0.2699771E+05 -0.2008963E+01  0.1271324E+07 -0.2661012E+01  0.1815898E+07  0.2850985E+01  0.2416566E+07 -0.2548230E+01
  0.1477500E+01  0.5208626E+06 -0.1774860E+00  0.3567719E+06 -0.2544036E+01  0.2436636E+05 -0.1954639E+01  0.1182570E+07 -0.2517455E+01  0.1652604E+07  0.2912845E+01  0.2385585E+07 -0.2392175E+01
  0.1525000E+01  0.4846875E+06 -0.1242156E+00  0.3374250E+06 -0.2397096E+01  0.2169461E+05 -0.1900351E+01  0.1093305E+07 -0.2373991E+01  0.1502654E+07  0.2965779E+01  0.2347235E+07 -0.2234827E+01
  0.1572500E+01  0.4492630E+06 -0.8134352E-01  0.3157519E+06 -0.2251517E+01  0.1918371E+05 -0.1846170E+01  0.9959175E+06 -0.2231434E+01  0.1356588E+07  0.3008096E+01  0.2295672E+07 -0.2075897E+01
  0.1620000E+01  0.4176707E+06 -0.4580892E-01  0.2941020E+06 -0.2105134E+01  0.1687919E+05 -0.1791852E+01  0.9029427E+06 -0.2088346E+01  0.1229255E+07  0.3043234E+01  0.2241756E+07 -0.1913286E+01
  0.1667500E+01  0.3882396E+06 -0.1400731E-01  0.2709506E+06 -0.1957516E+01  0.1469949E+05 -0.1738963E+01  0.8101849E+06 -0.1943892E+01  0.1114822E+07  0.3074818E+01  0.2174378E+07 -0.1747784E+01
  0.1715000E+01  0.3605582E+06  0.1397820E-01  0.2468464E+06 -0.1810939E+01  0.1275698E+05 -0.1687373E+01  0.7165702E+06 -0.1800367E+01  0.1007129E+07  0.3102166E+01  0.2091274E+07 -0.1579391E+01
  0.1762500E+01  0.3348597E+06  0.4238719E-01  0.2233013E+06 -0.1664329E+01  0.1088775E+05 -0.1638521E+01  0.6310602E+06 -0.1656327E+01  0.9127415E+06  0.3131609E+01  0.2002737E+07 -0.1407932E+01
  0.1810000E+01  0.3093910E+06  0.6876734E-01  0.1997309E+06 -0.1519778E+01  0.9290892E+04 -0.1590677E+01  0.5460444E+06 -0.1514274E+01  0.8180594E+06 -0.3125512E+01  0.1903968E+07 -0.1234424E+01
  0.1857500E+01  0.2850363E+06  0.9390117E-01  0.1777610E+06 -0.1375847E+01  0.7897400E+04 -0.1542412E+01  0.4707655E+06 -0.1372363E+01  0.7321184E+06 -0.3100680E+01  0.1804321E+07 -0.1058560E+01
  0.1905000E+01  0.2602905E+06  0.1140843E+00  0.1570326E+06 -0.1235013E+01  0.6647880E+04 -0.1496270E+01  0.4033270E+06 -0.1232555E+01  0.6503847E+06 -0.3080397E+01  0.1698340E+07 -0.8828349E+00
  0.1952500E+01  0.2354160E+06  0.1236885E+00  0.1377743E+06 -0.1096243E+01  0.5606777E+04 -0.1448006E+01  0.3417687E+06 -0.1094659E+01  0.5704589E+06 -0.3072947E+01  0.1587658E+07 -0.7074221E+00
  0.2000000E+01  0.2118147E+06  0.1208596E+00  0.1206965E+06 -0.9579222E+00  0.4673968E+04 -0.1403562E+01  0.2892769E+06 -0.9556026E+00  0.4981071E+06 -0.3076688E+01  0.1481017E+07 -0.5311112E+00
