VARIABLES="w (rad/s)"
"abs(F   1   1)" "angle(F   1   1)"
"abs(F   1   2)" "angle(F   1   2)"
"abs(F   1   3)" "angle(F   1   3)"
"abs(F   1   4)" "angle(F   1   4)"
"abs(F   1   5)" "angle(F   1   5)"
"abs(F   1   6)" "angle(F   1   6)"
Zone t="Diffraction force - beta =   0.000 deg",I=    41,F=POINT
  0.1000000E+00  0.1158228E+05 -0.1565278E+01  0.3159592E+04  0.1583347E+01  0.4841694E+06  0.3344450E-02  0.8068962E+06  0.2290043E-01  0.1614950E+07  0.3112753E+01  0.2483928E+05  0.1581757E+01
  0.1475000E+00  0.2515667E+05 -0.1561967E+01  0.6890969E+04  0.1588453E+01  0.4767963E+06  0.7205731E-02  0.7949079E+06  0.5039924E-01  0.1593714E+07  0.3078016E+01  0.5404003E+05  0.1588155E+01
  0.1950000E+00  0.4377881E+05 -0.1557366E+01  0.1204363E+05  0.1595629E+01  0.4667414E+06  0.1243159E-01  0.7792192E+06  0.8909971E-01  0.1568604E+07  0.3029013E+01  0.9417143E+05  0.1597119E+01
  0.2425000E+00  0.6721572E+05 -0.1551462E+01  0.1856041E+05  0.1604889E+01  0.4541764E+06  0.1892434E-01  0.7607619E+06  0.1396053E+00  0.1543891E+07  0.2965293E+01  0.1448094E+06  0.1608599E+01
  0.2900000E+00  0.9538224E+05 -0.1544200E+01  0.2648687E+05  0.1616245E+01  0.4392752E+06  0.2657358E-01  0.7406769E+06  0.2027993E+00  0.1524883E+07  0.2886840E+01  0.2059402E+06  0.1622636E+01
  0.3375000E+00  0.1279076E+06 -0.1535519E+01  0.3572598E+05  0.1629825E+01  0.4223108E+06  0.3526963E-01  0.7204590E+06  0.2792822E+00  0.1517811E+07  0.2795056E+01  0.2768453E+06  0.1639294E+01
  0.3850000E+00  0.1646084E+06 -0.1525320E+01  0.4630325E+05  0.1645814E+01  0.4035868E+06  0.4491120E-01  0.7018689E+06  0.3696932E+00  0.1529154E+07  0.2692893E+01  0.3573884E+06  0.1658657E+01
  0.4325000E+00  0.2051463E+06 -0.1513437E+01  0.5816951E+05  0.1664446E+01  0.3833982E+06  0.5540033E-01  0.6867673E+06  0.4739688E+00  0.1564465E+07  0.2585219E+01  0.4470499E+06  0.1680920E+01
  0.4800000E+00  0.2494386E+06 -0.1499682E+01  0.7143655E+05  0.1686101E+01  0.3620312E+06  0.6666126E-01  0.6772871E+06  0.5920565E+00  0.1628020E+07  0.2477708E+01  0.5460676E+06  0.1706314E+01
  0.5275000E+00  0.2972331E+06 -0.1483795E+01  0.8613929E+05  0.1711197E+01  0.3397578E+06  0.7861240E-01  0.6752649E+06  0.7219914E+00  0.1721266E+07  0.2376557E+01  0.6542579E+06  0.1735158E+01
  0.5750000E+00  0.3479593E+06 -0.1465444E+01  0.1021447E+06  0.1740320E+01  0.3171104E+06  0.9123386E-01  0.6825890E+06  0.8604995E+00  0.1843410E+07  0.2287230E+01  0.7707722E+06  0.1767829E+01
  0.6225000E+00  0.4017167E+06 -0.1444266E+01  0.1197363E+06  0.1774123E+01  0.2941024E+06  0.1044488E+00  0.7004362E+06  0.1005194E+01  0.1991937E+07  0.2212055E+01  0.8965529E+06  0.1804832E+01
  0.6700000E+00  0.4580972E+06 -0.1419814E+01  0.1388898E+06  0.1813364E+01  0.2712270E+06  0.1182183E+00  0.7297900E+06  0.1152155E+01  0.2163430E+07  0.2152796E+01  0.1031422E+07  0.1846700E+01
  0.7175000E+00  0.5166807E+06 -0.1391590E+01  0.1596660E+06  0.1858959E+01  0.2485429E+06  0.1325002E+00  0.7704154E+06  0.1298848E+01  0.2352262E+07  0.2109499E+01  0.1175356E+07  0.1894111E+01
  0.7650000E+00  0.5770586E+06 -0.1359065E+01  0.1821001E+06  0.1911874E+01  0.2264983E+06  0.1472659E+00  0.8219993E+06  0.1443304E+01  0.2554120E+07  0.2081823E+01  0.1328224E+07  0.1947873E+01
  0.8125000E+00  0.6389513E+06 -0.1321682E+01  0.2064054E+06  0.1973098E+01  0.2049455E+06  0.1622310E+00  0.8836596E+06  0.1586081E+01  0.2763500E+07  0.2068506E+01  0.1490841E+07  0.2008788E+01
  0.8600000E+00  0.7005656E+06 -0.1278877E+01  0.2318552E+06  0.2043770E+01  0.1845550E+06  0.1778374E+00  0.9529778E+06  0.1726498E+01  0.2972189E+07  0.2069508E+01  0.1659670E+07  0.2077651E+01
  0.9075000E+00  0.7617318E+06 -0.1230222E+01  0.2588057E+06  0.2124778E+01  0.1649958E+06  0.1933067E+00  0.1028033E+07  0.1867226E+01  0.3173940E+07  0.2083275E+01  0.1835760E+07  0.2155495E+01
  0.9550000E+00  0.8198709E+06 -0.1175380E+01  0.2860889E+06  0.2216981E+01  0.1465500E+06  0.2088176E+00  0.1105755E+07  0.2009591E+01  0.3360141E+07  0.2109183E+01  0.2013268E+07  0.2242902E+01
  0.1002500E+01  0.8735692E+06 -0.1114319E+01  0.3132523E+06  0.2320794E+01  0.1294510E+06  0.2244503E+00  0.1182417E+07  0.2154997E+01  0.3521812E+07  0.2146425E+01  0.2189574E+07  0.2340373E+01
  0.1050000E+01  0.9212304E+06 -0.1047439E+01  0.3396908E+06  0.2436211E+01  0.1134853E+06  0.2390159E+00  0.1254663E+07  0.2305207E+01  0.3650592E+07  0.2193416E+01  0.2360834E+07  0.2448113E+01
  0.1097500E+01  0.9581986E+06 -0.9757132E+00  0.3626252E+06  0.2562634E+01  0.9883179E+05  0.2527643E+00  0.1314366E+07  0.2459936E+01  0.3732137E+07  0.2248744E+01  0.2512988E+07  0.2565233E+01
  0.1145000E+01  0.9840888E+06 -0.9005294E+00  0.3818922E+06  0.2698608E+01  0.8562212E+05  0.2662472E+00  0.1360021E+07  0.2618926E+01  0.3764264E+07  0.2310460E+01  0.2644266E+07  0.2690962E+01
  0.1192500E+01  0.9964481E+06 -0.8242466E+00  0.3954892E+06  0.2842030E+01  0.7368894E+05  0.2775268E+00  0.1382869E+07  0.2781132E+01  0.3737108E+07  0.2375571E+01  0.2744072E+07  0.2823569E+01
  0.1240000E+01  0.9958614E+06 -0.7489011E+00  0.4034013E+06  0.2990606E+01  0.6297368E+05  0.2855636E+00  0.1386042E+07  0.2945071E+01  0.3659102E+07  0.2441472E+01  0.2812320E+07  0.2961040E+01
  0.1287500E+01  0.9813323E+06 -0.6775019E+00  0.4038465E+06  0.3141325E+01  0.5357331E+05  0.2942709E+00  0.1362634E+07  0.3107769E+01  0.3527116E+07  0.2505121E+01  0.2839900E+07  0.3100745E+01
  0.1335000E+01  0.9571911E+06 -0.6113071E+00  0.3988381E+06 -0.2990220E+01  0.4538817E+05  0.3014778E+00  0.1322402E+07 -0.3014182E+01  0.3363876E+07  0.2564794E+01  0.2837324E+07 -0.3041431E+01
  0.1382500E+01  0.9256471E+06 -0.5523408E+00  0.3886668E+06 -0.2839568E+01  0.3824503E+05  0.3063384E+00  0.1263776E+07 -0.2855823E+01  0.3174570E+07  0.2618121E+01  0.2806584E+07 -0.2900005E+01
  0.1430000E+01  0.8902324E+06 -0.5004592E+00  0.3749863E+06 -0.2690238E+01  0.3205089E+05  0.3082279E+00  0.1196145E+07 -0.2700384E+01  0.2978066E+07  0.2665041E+01  0.2756375E+07 -0.2758206E+01
  0.1477500E+01  0.8520111E+06 -0.4567983E+00  0.3571911E+06 -0.2543372E+01  0.2669302E+05  0.3103334E+00  0.1115498E+07 -0.2549053E+01  0.2775239E+07  0.2704177E+01  0.2682778E+07 -0.2616858E+01
  0.1525000E+01  0.8150450E+06 -0.4186468E+00  0.3378823E+06 -0.2396458E+01  0.2217444E+05  0.3148356E+00  0.1034418E+07 -0.2398811E+01  0.2586027E+07  0.2738758E+01  0.2599058E+07 -0.2473335E+01
  0.1572500E+01  0.7791293E+06 -0.3861902E+00  0.3162432E+06 -0.2250914E+01  0.1830249E+05  0.3171682E+00  0.9449998E+06 -0.2250628E+01  0.2401992E+07  0.2767546E+01  0.2500229E+07 -0.2327910E+01
  0.1620000E+01  0.7466366E+06 -0.3560024E+00  0.2946228E+06 -0.2104585E+01  0.1499793E+05  0.3148803E+00  0.8595199E+06 -0.2102621E+01  0.2236313E+07  0.2794385E+01  0.2396444E+07 -0.2177617E+01
  0.1667500E+01  0.7153751E+06 -0.3263999E+00  0.2714954E+06 -0.1957040E+01  0.1222154E+05  0.3133855E+00  0.7736413E+06 -0.1953946E+01  0.2082069E+07  0.2821133E+01  0.2278236E+07 -0.2024239E+01
  0.1715000E+01  0.6848801E+06 -0.2974190E+00  0.2474089E+06 -0.1810552E+01  0.9865959E+04  0.3049208E+00  0.6862299E+06 -0.1806935E+01  0.1933479E+07  0.2846924E+01  0.2144354E+07 -0.1868209E+01
  0.1762500E+01  0.6548682E+06 -0.2667617E+00  0.2238746E+06 -0.1664057E+01  0.7930136E+04  0.3052450E+00  0.6061958E+06 -0.1659908E+01  0.1795437E+07  0.2875893E+01  0.2005491E+07 -0.1708151E+01
  0.1810000E+01  0.6239496E+06 -0.2365099E+00  0.2003081E+06 -0.1519640E+01  0.6304997E+04  0.2925928E+00  0.5259343E+06 -0.1515462E+01  0.1656409E+07  0.2903393E+01  0.1858538E+07 -0.1545758E+01
  0.1857500E+01  0.5929012E+06 -0.2059560E+00  0.1783349E+06 -0.1375870E+01  0.4984279E+04  0.2685515E+00  0.4547094E+06 -0.1371568E+01  0.1524877E+07  0.2931689E+01  0.1713055E+07 -0.1379285E+01
  0.1905000E+01  0.5606001E+06 -0.1776348E+00  0.1575962E+06 -0.1235217E+01  0.3916959E+04  0.2415742E+00  0.3906730E+06 -0.1230229E+01  0.1397292E+07  0.2958476E+01  0.1565990E+07 -0.1212186E+01
  0.1952500E+01  0.5276097E+06 -0.1538772E+00  0.1383209E+06 -0.1096648E+01  0.3079241E+04  0.1896454E+00  0.3319248E+06 -0.1091185E+01  0.1272509E+07  0.2979644E+01  0.1419524E+07 -0.1044662E+01
  0.2000000E+01  0.4951782E+06 -0.1345044E+00  0.1212194E+06 -0.9585518E+00  0.2411568E+04  0.1363639E+00  0.2817225E+06 -0.9512645E+00  0.1155480E+07  0.2997229E+01  0.1281666E+07 -0.8735400E+00
Zone t="Diffraction force - beta =   1.000 deg",I=    41,F=POINT
  0.1000000E+00  0.1152533E+05 -0.1565272E+01  0.2957342E+04  0.1583851E+01  0.4841695E+06  0.3373646E-02  0.8068808E+06  0.2180623E-01  0.1614941E+07  0.3112958E+01  0.2398529E+05  0.1581995E+01
  0.1475000E+00  0.2503247E+05 -0.1561943E+01  0.6451680E+04  0.1589049E+01  0.4767963E+06  0.7269268E-02  0.7948312E+06  0.4799084E-01  0.1593664E+07  0.3078465E+01  0.5218427E+05  0.1588451E+01
  0.1950000E+00  0.4356175E+05 -0.1557331E+01  0.1127914E+05  0.1596273E+01  0.4667411E+06  0.1254265E-01  0.7789835E+06  0.8484158E-01  0.1568453E+07  0.3029802E+01  0.9093955E+05  0.1597516E+01
  0.2425000E+00  0.6688118E+05 -0.1551412E+01  0.1738656E+05  0.1605539E+01  0.4541753E+06  0.1909604E-01  0.7601926E+06  0.1329469E+00  0.1543531E+07  0.2966506E+01  0.1398451E+06  0.1609111E+01
  0.2900000E+00  0.9490475E+05 -0.1544143E+01  0.2482097E+05  0.1616923E+01  0.4392732E+06  0.2681904E-01  0.7395064E+06  0.1931897E+00  0.1524152E+07  0.2888541E+01  0.1988900E+06  0.1623270E+01
  0.3375000E+00  0.1272633E+06 -0.1535449E+01  0.3349169E+05  0.1630553E+01  0.4223076E+06  0.3560179E-01  0.7183106E+06  0.2662240E+00  0.1516494E+07  0.2797263E+01  0.2673847E+06  0.1640069E+01
  0.3850000E+00  0.1637728E+06 -0.1525232E+01  0.4342737E+05  0.1646620E+01  0.4035818E+06  0.4534285E-01  0.6982359E+06  0.3528214E+00  0.1527000E+07  0.2695563E+01  0.3452040E+06  0.1659615E+01
  0.4325000E+00  0.2040954E+06 -0.1513335E+01  0.5458443E+05  0.1665339E+01  0.3833909E+06  0.5594403E-01  0.6810246E+06  0.4531663E+00  0.1561212E+07  0.2588236E+01  0.4318519E+06  0.1682070E+01
  0.4800000E+00  0.2481464E+06 -0.1499569E+01  0.6707576E+05  0.1687110E+01  0.3620205E+06  0.6732941E-01  0.6687071E+06  0.5675775E+00  0.1623416E+07  0.2480906E+01  0.5275684E+06  0.1707674E+01
  0.5275000E+00  0.2956719E+06 -0.1483674E+01  0.8094036E+05  0.1712370E+01  0.3397437E+06  0.7941722E-01  0.6630838E+06  0.6945745E+00  0.1715118E+07  0.2379757E+01  0.6321838E+06  0.1736750E+01
  0.5750000E+00  0.3461039E+06 -0.1465321E+01  0.9605447E+05  0.1741703E+01  0.3170923E+06  0.9218679E-01  0.6661043E+06  0.8313639E+00  0.1835574E+07  0.2290280E+01  0.7448966E+06  0.1769678E+01
  0.6225000E+00  0.3995359E+06 -0.1444150E+01  0.1126995E+06  0.1775782E+01  0.2940802E+06  0.1055611E+00  0.6790464E+06  0.9758745E+00  0.1982314E+07  0.2214849E+01  0.8666266E+06  0.1806952E+01
  0.6700000E+00  0.4555601E+06 -0.1419717E+01  0.1308572E+06  0.1815382E+01  0.2712005E+06  0.1195017E+00  0.7030884E+06  0.1124235E+01  0.2151942E+07  0.2155277E+01  0.9972258E+06  0.1849115E+01
  0.7175000E+00  0.5137547E+06 -0.1391531E+01  0.1505946E+06  0.1861423E+01  0.2485125E+06  0.1339651E+00  0.7382121E+06  0.1273677E+01  0.2338862E+07  0.2111643E+01  0.1136696E+07  0.1896839E+01
  0.7650000E+00  0.5737110E+06 -0.1359064E+01  0.1719533E+06  0.1914899E+01  0.2264641E+06  0.1489234E+00  0.7842959E+06  0.1421807E+01  0.2538760E+07  0.2083624E+01  0.1284932E+07  0.1950939E+01
  0.8125000E+00  0.6351471E+06 -0.1321769E+01  0.1951510E+06  0.1976798E+01  0.2049083E+06  0.1640928E+00  0.8405876E+06  0.1568781E+01  0.2746148E+07  0.2069963E+01  0.1442754E+07  0.2012213E+01
  0.8600000E+00  0.6962849E+06 -0.1279085E+01  0.2194922E+06  0.2048288E+01  0.1845156E+06  0.1799151E+00  0.9048562E+06  0.1713490E+01  0.2952854E+07  0.2070622E+01  0.1606768E+07  0.2081457E+01
  0.9075000E+00  0.7569529E+06 -0.1230592E+01  0.2453362E+06  0.2130248E+01  0.1649551E+06  0.1956144E+00  0.9752527E+06  0.1858426E+01  0.3152669E+07  0.2084038E+01  0.1778015E+07  0.2159711E+01
  0.9550000E+00  0.8146011E+06 -0.1175956E+01  0.2715641E+06  0.2223553E+01  0.1465090E+06  0.2113723E+00  0.1048834E+07  0.2004771E+01  0.3337051E+07  0.2109579E+01  0.1950857E+07  0.2247554E+01
  0.1002500E+01  0.8678324E+06 -0.1115154E+01  0.2977518E+06  0.2328612E+01  0.1294103E+06  0.2272727E+00  0.1122006E+07  0.2153877E+01  0.3497119E+07  0.2146431E+01  0.2122777E+07  0.2345484E+01
  0.1050000E+01  0.9150742E+06 -0.1048587E+01  0.3233274E+06  0.2445398E+01  0.1134455E+06  0.2421329E+00  0.1191537E+07  0.2307529E+01  0.3624608E+07  0.2192999E+01  0.2290049E+07  0.2453703E+01
  0.1097500E+01  0.9517334E+06 -0.9772207E+00  0.3456064E+06  0.2573339E+01  0.9879290E+05  0.2562098E+00  0.1249550E+07  0.2465450E+01  0.3705363E+07  0.2247874E+01  0.2439020E+07  0.2571318E+01
  0.1145000E+01  0.9774412E+06 -0.9024436E+00  0.3644406E+06  0.2710927E+01  0.8558383E+05  0.2700651E+00  0.1294572E+07  0.2627395E+01  0.3737262E+07  0.2309106E+01  0.2567948E+07  0.2697546E+01
  0.1192500E+01  0.9897868E+06 -0.8266013E+00  0.3778830E+06  0.2856060E+01  0.7364963E+05  0.2817651E+00  0.1318031E+07  0.2792387E+01  0.3710600E+07  0.2373712E+01  0.2666464E+07  0.2830656E+01
  0.1240000E+01  0.9893609E+06 -0.7517156E+00  0.3859174E+06  0.3006401E+01  0.6293185E+05  0.2902682E+00  0.1322908E+07  0.2958935E+01  0.3633752E+07  0.2439095E+01  0.2734468E+07  0.2968611E+01
  0.1287500E+01  0.9751838E+06 -0.6807629E+00  0.3867924E+06 -0.3124227E+01  0.5352756E+05  0.2994972E+00  0.1302354E+07  0.3124108E+01  0.3503614E+07  0.2502247E+01  0.2763001E+07  0.3108777E+01
  0.1335000E+01  0.9515437E+06 -0.6149859E+00  0.3824488E+06 -0.2970727E+01  0.4533669E+05  0.3072589E+00  0.1265718E+07 -0.2995512E+01  0.3342684E+07  0.2561449E+01  0.2762225E+07 -0.3032984E+01
  0.1382500E+01  0.9206188E+06 -0.5563761E+00  0.3731437E+06 -0.2818195E+01  0.3818684E+05  0.3126933E+00  0.1211356E+07 -0.2834905E+01  0.3156060E+07  0.2614372E+01  0.2734011E+07 -0.2891180E+01
  0.1430000E+01  0.8858919E+06 -0.5047641E+00  0.3604705E+06 -0.2667013E+01  0.3198604E+05  0.3151480E+00  0.1148288E+07 -0.2677361E+01  0.2962360E+07  0.2660970E+01  0.2686772E+07 -0.2749070E+01
  0.1477500E+01  0.8483884E+06 -0.4612353E+00  0.3438152E+06 -0.2518239E+01  0.2662202E+05  0.3178127E+00  0.1072520E+07 -0.2523937E+01  0.2762340E+07  0.2699923E+01  0.2616591E+07 -0.2607461E+01
  0.1525000E+01  0.8121142E+06 -0.4230756E+00  0.3257043E+06 -0.2369431E+01  0.2209808E+05  0.3227820E+00  0.9962224E+06 -0.2371727E+01  0.2575707E+07  0.2734450E+01  0.2536327E+07 -0.2463751E+01
  0.1572500E+01  0.7768242E+06 -0.3904404E+00  0.3053220E+06 -0.2221926E+01  0.1822271E+05  0.3254809E+00  0.9116873E+06 -0.2221477E+01  0.2393964E+07  0.2763372E+01  0.2441045E+07 -0.2318201E+01
  0.1620000E+01  0.7448532E+06 -0.3599436E+00  0.2849476E+06 -0.2073687E+01  0.1491690E+05  0.3234285E+00  0.8307996E+06 -0.2071516E+01  0.2230140E+07  0.2790476E+01  0.2340554E+07 -0.2167864E+01
  0.1667500E+01  0.7140011E+06 -0.3299005E+00  0.2630884E+06 -0.1924163E+01  0.1214161E+05  0.3219507E+00  0.7493183E+06 -0.1920868E+01  0.2077320E+07  0.2817610E+01  0.2225508E+07 -0.2014570E+01
  0.1715000E+01  0.6837798E+06 -0.3003946E+00  0.2402534E+06 -0.1775595E+01  0.9789021E+04  0.3132876E+00  0.6661127E+06 -0.1771728E+01  0.1929695E+07  0.2843890E+01  0.2094613E+07 -0.1858726E+01
  0.1762500E+01  0.6539336E+06 -0.2691921E+00  0.2179103E+06 -0.1627092E+01  0.7858614E+04  0.3130934E+00  0.5898166E+06 -0.1622757E+01  0.1792268E+07  0.2873344E+01  0.1958320E+07 -0.1699028E+01
  0.1810000E+01  0.6230778E+06 -0.2384021E+00  0.1954745E+06 -0.1480579E+01  0.6240595E+04  0.2996121E+00  0.5130692E+06 -0.1476089E+01  0.1653538E+07  0.2901359E+01  0.1813570E+07 -0.1537170E+01
  0.1857500E+01  0.5920311E+06 -0.2073701E+00  0.1745239E+06 -0.1334859E+01  0.4928098E+04  0.2743792E+00  0.4448486E+06 -0.1330154E+01  0.1522124E+07  0.2930094E+01  0.1669695E+07 -0.1371428E+01
  0.1905000E+01  0.5596853E+06 -0.1786243E+00  0.1547089E+06 -0.1192334E+01  0.3869889E+04  0.2458477E+00  0.3833795E+06 -0.1186881E+01  0.1394540E+07  0.2957247E+01  0.1523822E+07 -0.1205285E+01
  0.1952500E+01  0.5266137E+06 -0.1544975E+00  0.1362611E+06 -0.1051944E+01  0.3041373E+04  0.1919648E+00  0.3268806E+06 -0.1045758E+01  0.1269654E+07  0.2978734E+01  0.1378191E+07 -0.1038901E+01
  0.2000000E+01  0.4940918E+06 -0.1348371E+00  0.1198655E+06 -0.9123560E+00  0.2382918E+04  0.1366080E+00  0.2785112E+06 -0.9041167E+00  0.1152524E+07  0.2996543E+01  0.1240657E+07 -0.8690975E+00
Zone t="Diffraction force - beta =   2.000 deg",I=    41,F=POINT
  0.1000000E+00  0.1146487E+05 -0.1565248E+01  0.2754190E+04  0.1584528E+01  0.4841694E+06  0.3401807E-02  0.8068662E+06  0.2070538E-01  0.1614930E+07  0.3113171E+01  0.2312399E+05  0.1582291E+01
  0.1475000E+00  0.2490064E+05 -0.1561919E+01  0.6010429E+04  0.1589751E+01  0.4767961E+06  0.7330554E-02  0.7947594E+06  0.4556734E-01  0.1593612E+07  0.3078933E+01  0.5031260E+05  0.1588770E+01
  0.1950000E+00  0.4333143E+05 -0.1557301E+01  0.1051119E+05  0.1596916E+01  0.4667407E+06  0.1264975E-01  0.7787602E+06  0.8055513E-01  0.1568296E+07  0.3030624E+01  0.8767996E+05  0.1597930E+01
  0.2425000E+00  0.6652627E+05 -0.1551374E+01  0.1620742E+05  0.1606228E+01  0.4541745E+06  0.1926167E-01  0.7596580E+06  0.1262378E+00  0.1543156E+07  0.2967771E+01  0.1348382E+06  0.1609617E+01
  0.2900000E+00  0.9439836E+05 -0.1544091E+01  0.2314749E+05  0.1617641E+01  0.4392713E+06  0.2705576E-01  0.7384076E+06  0.1834901E+00  0.1523389E+07  0.2890316E+01  0.1917797E+06  0.1623903E+01
  0.3375000E+00  0.1265802E+06 -0.1535387E+01  0.3124724E+05  0.1631316E+01  0.4223044E+06  0.3592214E-01  0.7162832E+06  0.2530078E+00  0.1515124E+07  0.2799568E+01  0.2578428E+06  0.1640844E+01
  0.3850000E+00  0.1628873E+06 -0.1525157E+01  0.4053828E+05  0.1647434E+01  0.4035766E+06  0.4575912E-01  0.6947986E+06  0.3356690E+00  0.1524756E+07  0.2698353E+01  0.3329145E+06  0.1660553E+01
  0.4325000E+00  0.2029825E+06 -0.1513252E+01  0.5098284E+05  0.1666236E+01  0.3833834E+06  0.5646838E-01  0.6755769E+06  0.4318767E+00  0.1557819E+07  0.2591391E+01  0.4165232E+06  0.1683199E+01
  0.4800000E+00  0.2467786E+06 -0.1499476E+01  0.6269483E+05  0.1688115E+01  0.3620101E+06  0.6797363E-01  0.6605283E+06  0.5422990E+00  0.1618617E+07  0.2484250E+01  0.5089098E+06  0.1709007E+01
  0.5275000E+00  0.2940211E+06 -0.1483577E+01  0.7571716E+05  0.1713519E+01  0.3397296E+06  0.8019300E-01  0.6514054E+06  0.6659319E+00  0.1708698E+07  0.2383102E+01  0.6099199E+06  0.1738308E+01
  0.5750000E+00  0.3441437E+06 -0.1465226E+01  0.8993585E+05  0.1743063E+01  0.3170742E+06  0.9310530E-01  0.6501920E+06  0.8005126E+00  0.1827391E+07  0.2293465E+01  0.7187964E+06  0.1771478E+01
  0.6225000E+00  0.3972343E+06 -0.1444069E+01  0.1056294E+06  0.1777414E+01  0.2940581E+06  0.1066333E+00  0.6582424E+06  0.9443659E+00  0.1972259E+07  0.2217762E+01  0.8364394E+06  0.1809017E+01
  0.6700000E+00  0.4528854E+06 -0.1419664E+01  0.1227861E+06  0.1817374E+01  0.2711742E+06  0.1207383E+00  0.6769264E+06  0.1093780E+01  0.2139944E+07  0.2157854E+01  0.9627324E+06  0.1851461E+01
  0.7175000E+00  0.5106743E+06 -0.1391521E+01  0.1414795E+06  0.1863884E+01  0.2484820E+06  0.1353761E+00  0.7064476E+06  0.1245828E+01  0.2324869E+07  0.2113858E+01  0.1097702E+07  0.1899488E+01
  0.7650000E+00  0.5701918E+06 -0.1359121E+01  0.1617576E+06  0.1917945E+01  0.2264301E+06  0.1505197E+00  0.7468940E+06  0.1397709E+01  0.2522735E+07  0.2085472E+01  0.1241260E+07  0.1953913E+01
  0.8125000E+00  0.6311542E+06 -0.1321923E+01  0.1838420E+06  0.1980556E+01  0.2048710E+06  0.1658854E+00  0.7976690E+06  0.1549139E+01  0.2728056E+07  0.2071443E+01  0.1394241E+07  0.2015533E+01
  0.8600000E+00  0.6917992E+06 -0.1279369E+01  0.2070693E+06  0.2052912E+01  0.1844762E+06  0.1819155E+00  0.8567459E+06  0.1698506E+01  0.2932715E+07  0.2071737E+01  0.1553396E+07  0.2085147E+01
  0.9075000E+00  0.7519543E+06 -0.1231048E+01  0.2318018E+06  0.2135880E+01  0.1649144E+06  0.1978358E+00  0.9223592E+06  0.1848066E+01  0.3130536E+07  0.2084779E+01  0.1719747E+07  0.2163799E+01
  0.9550000E+00  0.8090978E+06 -0.1176630E+01  0.2569697E+06  0.2230356E+01  0.1464680E+06  0.2138314E+00  0.9917028E+06  0.1998811E+01  0.3313056E+07  0.2109931E+01  0.1887871E+07  0.2252064E+01
  0.1002500E+01  0.8618516E+06 -0.1116096E+01  0.2821783E+06  0.2336738E+01  0.1293700E+06  0.2299898E+00  0.1061313E+07  0.2152004E+01  0.3471488E+07  0.2146373E+01  0.2055350E+07  0.2350440E+01
  0.1050000E+01  0.9086674E+06 -0.1049854E+01  0.3068897E+06  0.2454972E+01  0.1134060E+06  0.2451345E+00  0.1128088E+07  0.2309453E+01  0.3597673E+07  0.2192498E+01  0.2218570E+07  0.2459124E+01
  0.1097500E+01  0.9450163E+06 -0.9788594E+00  0.3285153E+06  0.2584517E+01  0.9875434E+05  0.2595297E+00  0.1184396E+07  0.2470871E+01  0.3677649E+07  0.2246902E+01  0.2364299E+07  0.2577216E+01
  0.1145000E+01  0.9705442E+06 -0.9045001E+00  0.3469203E+06  0.2723808E+01  0.8554587E+05  0.2737466E+00  0.1228791E+07  0.2636034E+01  0.3709345E+07  0.2307635E+01  0.2490811E+07  0.2703925E+01
  0.1192500E+01  0.9828850E+06 -0.8291060E+00  0.3602151E+06  0.2870738E+01  0.7361077E+05  0.2858572E+00  0.1252894E+07  0.2804030E+01  0.3683230E+07  0.2371722E+01  0.2587968E+07  0.2837517E+01
  0.1240000E+01  0.9826323E+06 -0.7546854E+00  0.3683824E+06  0.3022923E+01  0.6289062E+05  0.2948161E+00  0.1259524E+07  0.2973371E+01  0.3607599E+07  0.2436578E+01  0.2655656E+07  0.2975928E+01
  0.1287500E+01  0.9688231E+06 -0.6841798E+00  0.3697001E+06 -0.3105791E+01  0.5348253E+05  0.3045561E+00  0.1241882E+07  0.3141166E+01  0.3479385E+07  0.2499228E+01  0.2685070E+07  0.3116524E+01
  0.1335000E+01  0.9456999E+06 -0.6188158E+00  0.3660358E+06 -0.2950368E+01  0.4528587E+05  0.3128638E+00  0.1208907E+07 -0.2976007E+01  0.3320836E+07  0.2557961E+01  0.2686024E+07 -0.3024861E+01
  0.1382500E+01  0.9154092E+06 -0.5605503E+00  0.3576124E+06 -0.2795908E+01  0.3812939E+05  0.3188640E+00  0.1158872E+07 -0.2813067E+01  0.3136957E+07  0.2610488E+01  0.2660259E+07 -0.2882727E+01
  0.1430000E+01  0.8813811E+06 -0.5091914E+00  0.3459613E+06 -0.2642845E+01  0.3192195E+05  0.3218752E+00  0.1100428E+07 -0.2653366E+01  0.2946113E+07  0.2656778E+01  0.2615905E+07 -0.2740361E+01
  0.1477500E+01  0.8446013E+06 -0.4657713E+00  0.3304615E+06 -0.2492146E+01  0.2655191E+05  0.3250907E+00  0.1029592E+07 -0.2497822E+01  0.2748932E+07  0.2695570E+01  0.2549058E+07 -0.2598552E+01
  0.1525000E+01  0.8090181E+06 -0.4275785E+00  0.3135622E+06 -0.2341453E+01  0.2202259E+05  0.3305221E+00  0.9581241E+06 -0.2343650E+01  0.2564891E+07  0.2730069E+01  0.2472163E+07 -0.2454729E+01
  0.1572500E+01  0.7743471E+06 -0.3947395E+00  0.2944497E+06 -0.2192018E+01  0.1814382E+05  0.3335830E+00  0.8785141E+06 -0.2191362E+01  0.2385434E+07  0.2759151E+01  0.2380342E+07 -0.2309135E+01
  0.1620000E+01  0.7428864E+06 -0.3639118E+00  0.2753324E+06 -0.2041934E+01  0.1483678E+05  0.3317657E+00  0.8022501E+06 -0.2039515E+01  0.2223445E+07  0.2786539E+01  0.2283055E+07 -0.2158846E+01
  0.1667500E+01  0.7124302E+06 -0.3334123E+00  0.2547507E+06 -0.1890527E+01  0.1206259E+05  0.3303037E+00  0.7251890E+06 -0.1886995E+01  0.2072023E+07  0.2814077E+01  0.2171094E+07 -0.2005738E+01
  0.1715000E+01  0.6824696E+06 -0.3033737E+00  0.2331755E+06 -0.1740008E+01  0.9712971E+04  0.3214418E+00  0.6462099E+06 -0.1735857E+01  0.1925342E+07  0.2840853E+01  0.2043119E+07 -0.1850198E+01
  0.1762500E+01  0.6527794E+06 -0.2716234E+00  0.2120287E+06 -0.1589672E+01  0.7787952E+04  0.3207268E+00  0.5736593E+06 -0.1585122E+01  0.1788520E+07  0.2870799E+01  0.1909341E+07 -0.1690989E+01
  0.1810000E+01  0.6219812E+06 -0.2402967E+00  0.1907270E+06 -0.1441284E+01  0.6177001E+04  0.3064177E+00  0.5004335E+06 -0.1436454E+01  0.1650090E+07  0.2899327E+01  0.1766758E+07 -0.1529812E+01
  0.1857500E+01  0.5909360E+06 -0.2087883E+00  0.1707985E+06 -0.1293895E+01  0.4872638E+04  0.2799853E+00  0.4352114E+06 -0.1288762E+01  0.1518811E+07  0.2928500E+01  0.1624466E+07 -0.1364969E+01
  0.1905000E+01  0.5585489E+06 -0.1796169E+00  0.1519036E+06 -0.1149840E+01  0.3823468E+04  0.2499056E+00  0.3762961E+06 -0.1143900E+01  0.1391255E+07  0.2956024E+01  0.1479785E+07 -0.1199976E+01
  0.1952500E+01  0.5254033E+06 -0.1551148E+00  0.1342771E+06 -0.1008041E+01  0.3004082E+04  0.1940785E+00  0.3220299E+06 -0.1001122E+01  0.1266299E+07  0.2977836E+01  0.1335012E+07 -0.1034963E+01
  0.2000000E+01  0.4927994E+06 -0.1351529E+00  0.1185773E+06 -0.8674433E+00  0.2354710E+04  0.1366719E+00  0.2754659E+06 -0.8582678E+00  0.1149104E+07  0.2995887E+01  0.1197841E+07 -0.8667471E+00
Zone t="Diffraction force - beta =   3.000 deg",I=    41,F=POINT
  0.1000000E+00  0.1140092E+05 -0.1565234E+01  0.2550207E+04  0.1585299E+01  0.4841694E+06  0.3428924E-02  0.8068526E+06  0.1959815E-01  0.1614918E+07  0.3113393E+01  0.2225566E+05  0.1582559E+01
  0.1475000E+00  0.2476125E+05 -0.1561893E+01  0.5567342E+04  0.1590503E+01  0.4767960E+06  0.7389563E-02  0.7946915E+06  0.4312947E-01  0.1593559E+07  0.3079420E+01  0.4842555E+05  0.1589104E+01
  0.1950000E+00  0.4308791E+05 -0.1557270E+01  0.9740062E+04  0.1597690E+01  0.4667402E+06  0.1275290E-01  0.7785522E+06  0.7624161E-01  0.1568133E+07  0.3031478E+01  0.8439367E+05  0.1598340E+01
  0.2425000E+00  0.6615111E+05 -0.1551336E+01  0.1502335E+05  0.1606999E+01  0.4541736E+06  0.1942114E-01  0.7591573E+06  0.1194808E+00  0.1542767E+07  0.2969088E+01  0.1297903E+06  0.1610112E+01
  0.2900000E+00  0.9386321E+05 -0.1544047E+01  0.2146702E+05  0.1618420E+01  0.4392696E+06  0.2728370E-01  0.7373777E+06  0.1737060E+00  0.1522596E+07  0.2892164E+01  0.1846110E+06  0.1624537E+01
  0.3375000E+00  0.1258586E+06 -0.1535333E+01  0.2899336E+05  0.1632127E+01  0.4223012E+06  0.3623061E-01  0.7143819E+06  0.2396404E+00  0.1513701E+07  0.2801971E+01  0.2482228E+06  0.1641614E+01
  0.3850000E+00  0.1619522E+06 -0.1525097E+01  0.3763691E+05  0.1648270E+01  0.4035716E+06  0.4615985E-01  0.6915696E+06  0.3182451E+00  0.1522422E+07  0.2701262E+01  0.3205239E+06  0.1661489E+01
  0.4325000E+00  0.2018077E+06 -0.1513185E+01  0.4736579E+05  0.1667137E+01  0.3833757E+06  0.5697316E-01  0.6704376E+06  0.4101155E+00  0.1554291E+07  0.2594683E+01  0.4010684E+06  0.1684312E+01
  0.4800000E+00  0.2453358E+06 -0.1499404E+01  0.5829494E+05  0.1689111E+01  0.3619996E+06  0.6859373E-01  0.6527810E+06  0.5162283E+00  0.1613617E+07  0.2487742E+01  0.4900972E+06  0.1710312E+01
  0.5275000E+00  0.2922809E+06 -0.1483507E+01  0.7047139E+05  0.1714650E+01  0.3397154E+06  0.8093969E-01  0.6402722E+06  0.6360550E+00  0.1702012E+07  0.2386597E+01  0.5874722E+06  0.1739830E+01
  0.5750000E+00  0.3420790E+06 -0.1465165E+01  0.8379040E+05  0.1744398E+01  0.3170563E+06  0.9398901E-01  0.6349119E+06  0.7678866E+00  0.1818865E+07  0.2296789E+01  0.6924794E+06  0.1773237E+01
  0.6225000E+00  0.3948125E+06 -0.1444026E+01  0.9852818E+05  0.1779024E+01  0.2940359E+06  0.1076647E+00  0.6381091E+06  0.9105301E+00  0.1961782E+07  0.2220796E+01  0.8060042E+06  0.1811029E+01
  0.6700000E+00  0.4500742E+06 -0.1419652E+01  0.1146794E+06  0.1819361E+01  0.2711477E+06  0.1219275E+00  0.6514039E+06  0.1060550E+01  0.2127443E+07  0.2160531E+01  0.9279541E+06  0.1853742E+01
  0.7175000E+00  0.5074403E+06 -0.1391560E+01  0.1323241E+06  0.1866358E+01  0.2484515E+06  0.1367331E+00  0.6752233E+06  0.1214983E+01  0.2310293E+07  0.2116149E+01  0.1058383E+07  0.1902058E+01
  0.7650000E+00  0.5665024E+06 -0.1359236E+01  0.1515163E+06  0.1921037E+01  0.2263960E+06  0.1520544E+00  0.7098920E+06  0.1370637E+01  0.2506047E+07  0.2087370E+01  0.1197226E+07  0.1956795E+01
  0.8125000E+00  0.6269740E+06 -0.1322142E+01  0.1724822E+06  0.1984403E+01  0.2048338E+06  0.1676086E+00  0.7549858E+06  0.1526781E+01  0.2709233E+07  0.2072947E+01  0.1345321E+07  0.2018751E+01
  0.8600000E+00  0.6871101E+06 -0.1279728E+01  0.1945903E+06  0.2057684E+01  0.1844369E+06  0.1838375E+00  0.8087128E+06  0.1681213E+01  0.2911780E+07  0.2072853E+01  0.1499570E+07  0.2088723E+01
  0.9075000E+00  0.7467371E+06 -0.1231590E+01  0.2182067E+06  0.2141730E+01  0.1648737E+06  0.1999700E+00  0.8694032E+06  0.1835882E+01  0.3107553E+07  0.2085497E+01  0.1660975E+07  0.2167758E+01
  0.9550000E+00  0.8033631E+06 -0.1177401E+01  0.2423112E+06  0.2237459E+01  0.1464273E+06  0.2161938E+00  0.9343969E+06  0.1991518E+01  0.3288165E+07  0.2110239E+01  0.1824326E+07  0.2256433E+01
  0.1002500E+01  0.8556299E+06 -0.1117147E+01  0.2665386E+06  0.2345251E+01  0.1293298E+06  0.2326006E+00  0.1000369E+07  0.2149267E+01  0.3444930E+07  0.2146250E+01  0.1987310E+07  0.2355244E+01
  0.1050000E+01  0.9020129E+06 -0.1051243E+01  0.2903850E+06  0.2465027E+01  0.1133669E+06  0.2480195E+00  0.1064337E+07  0.2310932E+01  0.3569798E+07  0.2191912E+01  0.2146418E+07  0.2464378E+01
  0.1097500E+01  0.9380495E+06 -0.9806309E+00  0.3113592E+06  0.2596280E+01  0.9871645E+05  0.2627227E+00  0.1118926E+07  0.2476214E+01  0.3649004E+07  0.2245827E+01  0.2288844E+07  0.2582932E+01
  0.1145000E+01  0.9634018E+06 -0.9066994E+00  0.3293412E+06  0.2737372E+01  0.8550860E+05  0.2772911E+00  0.1162708E+07  0.2644902E+01  0.3680527E+07  0.2306044E+01  0.2412877E+07  0.2710105E+01
  0.1192500E+01  0.9757462E+06 -0.8317623E+00  0.3424977E+06  0.2886195E+01  0.7357259E+05  0.2898009E+00  0.1187490E+07  0.2816164E+01  0.3655005E+07  0.2369601E+01  0.2508611E+07  0.2844154E+01
  0.1240000E+01  0.9756791E+06 -0.7578113E+00  0.3508088E+06  0.3040315E+01  0.6285011E+05  0.2992057E+00  0.1195924E+07  0.2988508E+01  0.3580654E+07  0.2433920E+01  0.2575912E+07  0.2982998E+01
  0.1287500E+01  0.9622531E+06 -0.6877525E+00  0.3525841E+06 -0.3086402E+01  0.5343822E+05  0.3094464E+00  0.1181265E+07 -0.3124089E+01  0.3454436E+07  0.2496063E+01  0.2606136E+07  0.3123990E+01
  0.1335000E+01  0.9396629E+06 -0.6227959E+00  0.3496152E+06 -0.2928988E+01  0.4523587E+05  0.3182896E+00  0.1152016E+07 -0.2955505E+01  0.3298338E+07  0.2554330E+01  0.2608748E+07 -0.3017057E+01