VARIABLES="Period (s)" "|Fx| (N/m)" "|Fy| (N/m)" "|Fz| (N/m)" "|Cx| (N)" "|Cy| (N)" "|Cz| (N)" "ang(Fx) (°)" "ang(Fy) (°)" "ang(Fz) (°)" "ang(Cx) (°)" "ang(Cy) (°)" "ang(Cz) (°)"
Zone t="Corps  1"
Zone t="Diffraction force - beta =   0.000 deg",I=    41,F=POINT
 0.1000  0.115823E+05  0.315959E+04  0.484169E+06  0.806896E+06  0.161495E+07  0.248393E+05  -89.68   90.72    0.19    1.31  178.35   90.63
 0.1475  0.251567E+05  0.689097E+04  0.476796E+06  0.794908E+06  0.159371E+07  0.540400E+05  -89.49   91.01    0.41    2.89  176.36   90.99
 0.1950  0.437788E+05  0.120436E+05  0.466741E+06  0.779219E+06  0.156860E+07  0.941714E+05  -89.23   91.42    0.71    5.11  173.55   91.51
 0.2425  0.672157E+05  0.185604E+05  0.454176E+06  0.760762E+06  0.154389E+07  0.144809E+06  -88.89   91.95    1.08    8.00  169.90   92.17
 0.2900  0.953822E+05  0.264869E+05  0.439275E+06  0.740677E+06  0.152488E+07  0.205940E+06  -88.48   92.60    1.52   11.62  165.40   92.97
 0.3375  0.127908E+06  0.357260E+05  0.422311E+06  0.720459E+06  0.151781E+07  0.276845E+06  -87.98   93.38    2.02   16.00  160.14   93.92
 0.3850  0.164608E+06  0.463032E+05  0.403587E+06  0.701869E+06  0.152915E+07  0.357388E+06  -87.39   94.30    2.57   21.18  154.29   95.03
 0.4325  0.205146E+06  0.581695E+05  0.383398E+06  0.686767E+06  0.156446E+07  0.447050E+06  -86.71   95.37    3.17   27.16  148.12   96.31
 0.4800  0.249439E+06  0.714365E+05  0.362031E+06  0.677287E+06  0.162802E+07  0.546068E+06  -85.93   96.61    3.82   33.92  141.96   97.76
 0.5275  0.297233E+06  0.861393E+05  0.339758E+06  0.675265E+06  0.172127E+07  0.654258E+06  -85.02   98.04    4.50   41.37  136.17   99.42
 0.5750  0.347959E+06  0.102145E+06  0.317110E+06  0.682589E+06  0.184341E+07  0.770772E+06  -83.96   99.71    5.23   49.30  131.05  101.29
 0.6225  0.401717E+06  0.119736E+06  0.294102E+06  0.700436E+06  0.199194E+07  0.896553E+06  -82.75  101.65    5.98   57.59  126.74  103.41
 0.6700  0.458097E+06  0.138890E+06  0.271227E+06  0.729790E+06  0.216343E+07  0.103142E+07  -81.35  103.90    6.77   66.01  123.35  105.81
 0.7175  0.516681E+06  0.159666E+06  0.248543E+06  0.770415E+06  0.235226E+07  0.117536E+07  -79.73  106.51    7.59   74.42  120.87  108.52
 0.7650  0.577059E+06  0.182100E+06  0.226498E+06  0.821999E+06  0.255412E+07  0.132822E+07  -77.87  109.54    8.44   82.70  119.28  111.60
 0.8125  0.638951E+06  0.206405E+06  0.204945E+06  0.883660E+06  0.276350E+07  0.149084E+07  -75.73  113.05    9.30   90.88  118.52  115.10
 0.8600  0.700566E+06  0.231855E+06  0.184555E+06  0.952978E+06  0.297219E+07  0.165967E+07  -73.27  117.10   10.19   98.92  118.57  119.04
 0.9075  0.761732E+06  0.258806E+06  0.164996E+06  0.102803E+07  0.317394E+07  0.183576E+07  -70.49  121.74   11.08  106.98  119.36  123.50
 0.9550  0.819871E+06  0.286089E+06  0.146550E+06  0.110576E+07  0.336014E+07  0.201327E+07  -67.34  127.02   11.96  115.14  120.85  128.51
 1.0025  0.873569E+06  0.313252E+06  0.129451E+06  0.118242E+07  0.352181E+07  0.218957E+07  -63.85  132.97   12.86  123.47  122.98  134.09
 1.0500  0.921230E+06  0.339691E+06  0.113485E+06  0.125466E+07  0.365059E+07  0.236083E+07  -60.01  139.58   13.69  132.08  125.67  140.27
 1.0975  0.958199E+06  0.362625E+06  0.988318E+05  0.131437E+07  0.373214E+07  0.251299E+07  -55.90  146.83   14.48  140.94  128.84  146.98
 1.1450  0.984089E+06  0.381892E+06  0.856221E+05  0.136002E+07  0.376426E+07  0.264427E+07  -51.60  154.62   15.25  150.05  132.38  154.18
 1.1925  0.996448E+06  0.395489E+06  0.736889E+05  0.138287E+07  0.373711E+07  0.274407E+07  -47.23  162.84   15.90  159.35  136.11  161.78
 1.2400  0.995861E+06  0.403401E+06  0.629737E+05  0.138604E+07  0.365910E+07  0.281232E+07  -42.91  171.35   16.36  168.74  139.89  169.66
 1.2875  0.981332E+06  0.403846E+06  0.535733E+05  0.136263E+07  0.352712E+07  0.283990E+07  -38.82  179.98   16.86  178.06  143.53  177.66
 1.3350  0.957191E+06  0.398838E+06  0.453882E+05  0.132240E+07  0.336388E+07  0.283732E+07  -35.03 -171.33   17.27 -172.70  146.95 -174.26
 1.3825  0.925647E+06  0.388667E+06  0.382450E+05  0.126378E+07  0.317457E+07  0.280658E+07  -31.65 -162.70   17.55 -163.63  150.01 -166.16
 1.4300  0.890232E+06  0.374986E+06  0.320509E+05  0.119614E+07  0.297807E+07  0.275637E+07  -28.67 -154.14   17.66 -154.72  152.70 -158.03
 1.4775  0.852011E+06  0.357191E+06  0.266930E+05  0.111550E+07  0.277524E+07  0.268278E+07  -26.17 -145.72   17.78 -146.05  154.94 -149.93
 1.5250  0.815045E+06  0.337882E+06  0.221744E+05  0.103442E+07  0.258603E+07  0.259906E+07  -23.99 -137.31   18.04 -137.44  156.92 -141.71
 1.5725  0.779129E+06  0.316243E+06  0.183025E+05  0.945000E+06  0.240199E+07  0.250023E+07  -22.13 -128.97   18.17 -128.95  158.57 -133.38
 1.6200  0.746637E+06  0.294623E+06  0.149979E+05  0.859520E+06  0.223631E+07  0.239644E+07  -20.40 -120.58   18.04 -120.47  160.11 -124.77
 1.6675  0.715375E+06  0.271495E+06  0.122215E+05  0.773641E+06  0.208207E+07  0.227824E+07  -18.70 -112.13   17.96 -111.95  161.64 -115.98
 1.7150  0.684880E+06  0.247409E+06  0.986596E+04  0.686230E+06  0.193348E+07  0.214435E+07  -17.04 -103.74   17.47 -103.53  163.12 -107.04
 1.7625  0.654868E+06  0.223875E+06  0.793014E+04  0.606196E+06  0.179544E+07  0.200549E+07  -15.28  -95.34   17.49  -95.11  164.78  -97.87
 1.8100  0.623950E+06  0.200308E+06  0.630500E+04  0.525934E+06  0.165641E+07  0.185854E+07  -13.55  -87.07   16.76  -86.83  166.35  -88.57
 1.8575  0.592901E+06  0.178335E+06  0.498428E+04  0.454709E+06  0.152488E+07  0.171306E+07  -11.80  -78.83   15.39  -78.59  167.97  -79.03
 1.9050  0.560600E+06  0.157596E+06  0.391696E+04  0.390673E+06  0.139729E+07  0.156599E+07  -10.18  -70.77   13.84  -70.49  169.51  -69.45
 1.9525  0.527610E+06  0.138321E+06  0.307924E+04  0.331925E+06  0.127251E+07  0.141952E+07   -8.82  -62.83   10.87  -62.52  170.72  -59.85
 2.0000  0.495178E+06  0.121219E+06  0.241157E+04  0.281723E+06  0.115548E+07  0.128167E+07   -7.71  -54.92    7.81  -54.50  171.73  -50.05
Zone t="Diffraction force - beta =   1.000 deg",I=    41,F=POINT
 0.1000  0.115253E+05  0.295734E+04  0.484169E+06  0.806881E+06  0.161494E+07  0.239853E+05  -89.68   90.75    0.19    1.25  178.36   90.64
 0.1475  0.250325E+05  0.645168E+04  0.476796E+06  0.794831E+06  0.159366E+07  0.521843E+05  -89.49   91.05    0.42    2.75  176.38   91.01
 0.1950  0.435618E+05  0.112791E+05  0.466741E+06  0.778984E+06  0.156845E+07  0.909395E+05  -89.23   91.46    0.72    4.86  173.59   91.53
 0.2425  0.668812E+05  0.173866E+05  0.454175E+06  0.760193E+06  0.154353E+07  0.139845E+06  -88.89   91.99    1.09    7.62  169.97   92.20
 0.2900  0.949048E+05  0.248210E+05  0.439273E+06  0.739506E+06  0.152415E+07  0.198890E+06  -88.47   92.64    1.54   11.07  165.50   93.01
 0.3375  0.127263E+06  0.334917E+05  0.422308E+06  0.718311E+06  0.151649E+07  0.267385E+06  -87.97   93.42    2.04   15.25  160.27   93.97
 0.3850  0.163773E+06  0.434274E+05  0.403582E+06  0.698236E+06  0.152700E+07  0.345204E+06  -87.39   94.34    2.60   20.22  154.44   95.09
 0.4325  0.204095E+06  0.545844E+05  0.383391E+06  0.681025E+06  0.156121E+07  0.431852E+06  -86.71   95.42    3.21   25.96  148.30   96.38
 0.4800  0.248146E+06  0.670758E+05  0.362020E+06  0.668707E+06  0.162342E+07  0.527568E+06  -85.92   96.66    3.86   32.52  142.15   97.84
 0.5275  0.295672E+06  0.809404E+05  0.339744E+06  0.663084E+06  0.171512E+07  0.632184E+06  -85.01   98.11    4.55   39.80  136.35   99.51
 0.5750  0.346104E+06  0.960545E+05  0.317092E+06  0.666104E+06  0.183557E+07  0.744897E+06  -83.96   99.79    5.28   47.63  131.22  101.40
 0.6225  0.399536E+06  0.112699E+06  0.294080E+06  0.679046E+06  0.198231E+07  0.866627E+06  -82.74  101.74    6.05   55.91  126.90  103.53
 0.6700  0.455560E+06  0.130857E+06  0.271201E+06  0.703088E+06  0.215194E+07  0.997226E+06  -81.34  104.01    6.85   64.41  123.49  105.95
 0.7175  0.513755E+06  0.150595E+06  0.248513E+06  0.738212E+06  0.233886E+07  0.113670E+07  -79.73  106.65    7.68   72.98  120.99  108.68
 0.7650  0.573711E+06  0.171953E+06  0.226464E+06  0.784296E+06  0.253876E+07  0.128493E+07  -77.87  109.72    8.53   81.46  119.38  111.78
 0.8125  0.635147E+06  0.195151E+06  0.204908E+06  0.840588E+06  0.274615E+07  0.144275E+07  -75.73  113.26    9.40   89.88  118.60  115.29
 0.8600  0.696285E+06  0.219492E+06  0.184516E+06  0.904856E+06  0.295285E+07  0.160677E+07  -73.29  117.36   10.31   98.18  118.64  119.26
 0.9075  0.756953E+06  0.245336E+06  0.164955E+06  0.975253E+06  0.315267E+07  0.177802E+07  -70.51  122.05   11.21  106.48  119.41  123.74
 0.9550  0.814601E+06  0.271564E+06  0.146509E+06  0.104883E+07  0.333705E+07  0.195086E+07  -67.38  127.40   12.11  114.86  120.87  128.78
 1.0025  0.867832E+06  0.297752E+06  0.129410E+06  0.112201E+07  0.349712E+07  0.212278E+07  -63.89  133.42   13.02  123.41  122.98  134.39
 1.0500  0.915074E+06  0.323327E+06  0.113445E+06  0.119154E+07  0.362461E+07  0.229005E+07  -60.08  140.11   13.87  132.21  125.65  140.59
 1.0975  0.951733E+06  0.345606E+06  0.987929E+05  0.124955E+07  0.370536E+07  0.243902E+07  -55.99  147.44   14.68  141.26  128.79  147.33
 1.1450  0.977441E+06  0.364441E+06  0.855838E+05  0.129457E+07  0.373726E+07  0.256795E+07  -51.71  155.32   15.47  150.54  132.30  154.56
 1.1925  0.989787E+06  0.377883E+06  0.736496E+05  0.131803E+07  0.371060E+07  0.266646E+07  -47.36  163.64   16.14  159.99  136.00  162.18
 1.2400  0.989361E+06  0.385917E+06  0.629318E+05  0.132291E+07  0.363375E+07  0.273447E+07  -43.07  172.25   16.63  169.53  139.75  170.09
 1.2875  0.975184E+06  0.386792E+06  0.535276E+05  0.130235E+07  0.350361E+07  0.276300E+07  -39.00 -179.00   17.16  179.00  143.37  178.12
 1.3350  0.951544E+06  0.382449E+06  0.453367E+05  0.126572E+07  0.334268E+07  0.276223E+07  -35.24 -170.21   17.60 -171.63  146.76 -173.78
 1.3825  0.920619E+06  0.373144E+06  0.381868E+05  0.121136E+07  0.315606E+07  0.273401E+07  -31.88 -161.47   17.92 -162.43  149.79 -165.65
 1.4300  0.885892E+06  0.360470E+06  0.319860E+05  0.114829E+07  0.296236E+07  0.268677E+07  -28.92 -152.81   18.06 -153.40  152.46 -157.51
 1.4775  0.848388E+06  0.343815E+06  0.266220E+05  0.107252E+07  0.276234E+07  0.261659E+07  -26.43 -144.28   18.21 -144.61  154.69 -149.40
 1.5250  0.812114E+06  0.325704E+06  0.220981E+05  0.996222E+06  0.257571E+07  0.253633E+07  -24.24 -135.76   18.49 -135.89  156.67 -141.16
 1.5725  0.776824E+06  0.305322E+06  0.182227E+05  0.911687E+06  0.239396E+07  0.244104E+07  -22.37 -127.31   18.65 -127.28  158.33 -132.82
 1.6200  0.744853E+06  0.284948E+06  0.149169E+05  0.830800E+06  0.223014E+07  0.234055E+07  -20.62 -118.81   18.53 -118.69  159.88 -124.21
 1.6675  0.714001E+06  0.263088E+06  0.121416E+05  0.749318E+06  0.207732E+07  0.222551E+07  -18.90 -110.25   18.45 -110.06  161.44 -115.43
 1.7150  0.683780E+06  0.240253E+06  0.978902E+04  0.666113E+06  0.192970E+07  0.209461E+07  -17.21 -101.73   17.95 -101.51  162.94 -106.50
 1.7625  0.653934E+06  0.217910E+06  0.785861E+04  0.589817E+06  0.179227E+07  0.195832E+07  -15.42  -93.23   17.94  -92.98  164.63  -97.35
 1.8100  0.623078E+06  0.195474E+06  0.624060E+04  0.513069E+06  0.165354E+07  0.181357E+07  -13.66  -84.83   17.17  -84.57  166.24  -88.07
 1.8575  0.592031E+06  0.174524E+06  0.492810E+04  0.444849E+06  0.152212E+07  0.166969E+07  -11.88  -76.48   15.72  -76.21  167.88  -78.58
 1.9050  0.559685E+06  0.154709E+06  0.386989E+04  0.383380E+06  0.139454E+07  0.152382E+07  -10.23  -68.32   14.09  -68.00  169.44  -69.06
 1.9525  0.526614E+06  0.136261E+06  0.304137E+04  0.326881E+06  0.126965E+07  0.137819E+07   -8.85  -60.27   11.00  -59.92  170.67  -59.52
 2.0000  0.494092E+06  0.119866E+06  0.238292E+04  0.278511E+06  0.115252E+07  0.124066E+07   -7.73  -52.27    7.83  -51.80  171.69  -49.80
Zone t="Diffraction force - beta =   2.000 deg",I=    41,F=POINT
 0.1000  0.114649E+05  0.275419E+04  0.484169E+06  0.806866E+06  0.161493E+07  0.231240E+05  -89.68   90.79    0.19    1.19  178.37   90.66
 0.1475  0.249006E+05  0.601043E+04  0.476796E+06  0.794759E+06  0.159361E+07  0.503126E+05  -89.49   91.09    0.42    2.61  176.41   91.03
 0.1950  0.433314E+05  0.105112E+05  0.466741E+06  0.778760E+06  0.156830E+07  0.876800E+05  -89.23   91.50    0.72    4.62  173.64   91.55
 0.2425  0.665263E+05  0.162074E+05  0.454175E+06  0.759658E+06  0.154316E+07  0.134838E+06  -88.89   92.03    1.10    7.23  170.04   92.22
 0.2900  0.943984E+05  0.231475E+05  0.439271E+06  0.738408E+06  0.152339E+07  0.191780E+06  -88.47   92.68    1.55   10.51  165.60   93.04
 0.3375  0.126580E+06  0.312472E+05  0.422304E+06  0.716283E+06  0.151512E+07  0.257843E+06  -87.97   93.47    2.06   14.50  160.40   94.01
 0.3850  0.162887E+06  0.405383E+05  0.403577E+06  0.694799E+06  0.152476E+07  0.332915E+06  -87.39   94.39    2.62   19.23  154.60   95.14
 0.4325  0.202982E+06  0.509828E+05  0.383383E+06  0.675577E+06  0.155782E+07  0.416523E+06  -86.70   95.47    3.24   24.74  148.48   96.44
 0.4800  0.246779E+06  0.626948E+05  0.362010E+06  0.660528E+06  0.161862E+07  0.508910E+06  -85.91   96.72    3.89   31.07  142.34   97.92
 0.5275  0.294021E+06  0.757172E+05  0.339730E+06  0.651405E+06  0.170870E+07  0.609920E+06  -85.00   98.18    4.59   38.16  136.54   99.60
 0.5750  0.344144E+06  0.899359E+05  0.317074E+06  0.650192E+06  0.182739E+07  0.718796E+06  -83.95   99.87    5.33   45.87  131.41  101.50
 0.6225  0.397234E+06  0.105629E+06  0.294058E+06  0.658242E+06  0.197226E+07  0.836439E+06  -82.74  101.84    6.11   54.11  127.07  103.65
 0.6700  0.452885E+06  0.122786E+06  0.271174E+06  0.676926E+06  0.213994E+07  0.962732E+06  -81.34  104.13    6.92   62.67  123.64  106.08
 0.7175  0.510674E+06  0.141480E+06  0.248482E+06  0.706448E+06  0.232487E+07  0.109770E+07  -79.73  106.79    7.76   71.38  121.12  108.83
 0.7650  0.570192E+06  0.161758E+06  0.226430E+06  0.746894E+06  0.252273E+07  0.124126E+07  -77.87  109.89    8.62   80.08  119.49  111.95
 0.8125  0.631154E+06  0.183842E+06  0.204871E+06  0.797669E+06  0.272806E+07  0.139424E+07  -75.74  113.48    9.50   88.76  118.68  115.48
 0.8600  0.691799E+06  0.207069E+06  0.184476E+06  0.856746E+06  0.293272E+07  0.155340E+07  -73.30  117.62   10.42   97.32  118.70  119.47
 0.9075  0.751954E+06  0.231802E+06  0.164914E+06  0.922359E+06  0.313054E+07  0.171975E+07  -70.53  122.38   11.34  105.89  119.45  123.98
 0.9550  0.809098E+06  0.256970E+06  0.146468E+06  0.991703E+06  0.331306E+07  0.188787E+07  -67.42  127.79   12.25  114.52  120.89  129.03
 1.0025  0.861852E+06  0.282178E+06  0.129370E+06  0.106131E+07  0.347149E+07  0.205535E+07  -63.95  133.89   13.18  123.30  122.98  134.67
 1.0500  0.908667E+06  0.306890E+06  0.113406E+06  0.112809E+07  0.359767E+07  0.221857E+07  -60.15  140.66   14.05  132.32  125.62  140.90
 1.0975  0.945016E+06  0.328515E+06  0.987543E+05  0.118440E+07  0.367765E+07  0.236430E+07  -56.08  148.08   14.87  141.57  128.74  147.66
 1.1450  0.970544E+06  0.346920E+06  0.855459E+05  0.122879E+07  0.370934E+07  0.249081E+07  -51.82  156.06   15.68  151.03  132.22  154.92
 1.1925  0.982885E+06  0.360215E+06  0.736108E+05  0.125289E+07  0.368323E+07  0.258797E+07  -47.50  164.48   16.38  160.66  135.89  162.58
 1.2400  0.982632E+06  0.368382E+06  0.628906E+05  0.125952E+07  0.360760E+07  0.265566E+07  -43.24  173.20   16.89  170.36  139.61  170.51
 1.2875  0.968823E+06  0.369700E+06  0.534825E+05  0.124188E+07  0.347938E+07  0.268507E+07  -39.20 -177.95   17.45  179.98  143.20  178.56
 1.3350  0.945700E+06  0.366036E+06  0.452859E+05  0.120891E+07  0.332084E+07  0.268602E+07  -35.46 -169.04   17.93 -170.51  146.56 -173.31
 1.3825  0.915409E+06  0.357612E+06  0.381294E+05  0.115887E+07  0.313696E+07  0.266026E+07  -32.12 -160.19   18.27 -161.18  149.57 -165.17
 1.4300  0.881381E+06  0.345961E+06  0.319219E+05  0.110043E+07  0.294611E+07  0.261590E+07  -29.17 -151.42   18.44 -152.03  152.22 -157.01
 1.4775  0.844601E+06  0.330462E+06  0.265519E+05  0.102959E+07  0.274893E+07  0.254906E+07  -26.69 -142.79   18.63 -143.11  154.44 -148.89
 1.5250  0.809018E+06  0.313562E+06  0.220226E+05  0.958124E+06  0.256489E+07  0.247216E+07  -24.50 -134.16   18.94 -134.28  156.42 -140.65
 1.5725  0.774347E+06  0.294450E+06  0.181438E+05  0.878514E+06  0.238543E+07  0.238034E+07  -22.62 -125.59   19.11 -125.56  158.09 -132.30
 1.6200  0.742886E+06  0.275332E+06  0.148368E+05  0.802250E+06  0.222345E+07  0.228306E+07  -20.85 -116.99   19.01 -116.86  159.66 -123.69
 1.6675  0.712430E+06  0.254751E+06  0.120626E+05  0.725189E+06  0.207202E+07  0.217109E+07  -19.10 -108.32   18.93 -108.12  161.23 -114.92
 1.7150  0.682470E+06  0.233176E+06  0.971297E+04  0.646210E+06  0.192534E+07  0.204312E+07  -17.38  -99.70   18.42  -99.46  162.77 -106.01
 1.7625  0.652779E+06  0.212029E+06  0.778795E+04  0.573659E+06  0.178852E+07  0.190934E+07  -15.56  -91.08   18.38  -90.82  164.48  -96.89
 1.8100  0.621981E+06  0.190727E+06  0.617700E+04  0.500433E+06  0.165009E+07  0.176676E+07  -13.77  -82.58   17.56  -82.30  166.12  -87.65
 1.8575  0.590936E+06  0.170798E+06  0.487264E+04  0.435211E+06  0.151881E+07  0.162447E+07  -11.96  -74.13   16.04  -73.84  167.79  -78.21
 1.9050  0.558549E+06  0.151904E+06  0.382347E+04  0.376296E+06  0.139126E+07  0.147979E+07  -10.29  -65.88   14.32  -65.54  169.37  -68.75
 1.9525  0.525403E+06  0.134277E+06  0.300408E+04  0.322030E+06  0.126630E+07  0.133501E+07   -8.89  -57.76   11.12  -57.36  170.62  -59.30
 2.0000  0.492799E+06  0.118577E+06  0.235471E+04  0.275466E+06  0.114910E+07  0.119784E+07   -7.74  -49.70    7.83  -49.18  171.65  -49.66
Zone t="Diffraction force - beta =   3.000 deg",I=    41,F=POINT
 0.1000  0.114009E+05  0.255021E+04  0.484169E+06  0.806853E+06  0.161492E+07  0.222557E+05  -89.68   90.83    0.20    1.12  178.38   90.67
 0.1475  0.247612E+05  0.556734E+04  0.476796E+06  0.794692E+06  0.159356E+07  0.484256E+05  -89.49   91.13    0.42    2.47  176.44   91.05
 0.1950  0.430879E+05  0.974006E+04  0.466740E+06  0.778552E+06  0.156813E+07  0.843937E+05  -89.23   91.54    0.73    4.37  173.69   91.58
 0.2425  0.661511E+05  0.150234E+05  0.454174E+06  0.759157E+06  0.154277E+07  0.129790E+06  -88.89   92.07    1.11    6.85  170.12   92.25
 0.2900  0.938632E+05  0.214670E+05  0.439270E+06  0.737378E+06  0.152260E+07  0.184611E+06  -88.47   92.73    1.56    9.95  165.71   93.08
 0.3375  0.125859E+06  0.289934E+05  0.422301E+06  0.714382E+06  0.151370E+07  0.248223E+06  -87.97   93.51    2.08   13.73  160.54   94.06
 0.3850  0.161952E+06  0.376369E+05  0.403572E+06  0.691570E+06  0.152242E+07  0.320524E+06  -87.38   94.44    2.64   18.23  154.77   95.20
 0.4325  0.201808E+06  0.473658E+05  0.383376E+06  0.670438E+06  0.155429E+07  0.401068E+06  -86.70   95.52    3.26   23.50  148.66   96.50
 0.4800  0.245336E+06  0.582949E+05  0.362000E+06  0.652781E+06  0.161362E+07  0.490097E+06  -85.91   96.78    3.93   29.58  142.54   97.99
 0.5275  0.292281E+06  0.704714E+05  0.339715E+06  0.640272E+06  0.170201E+07  0.587472E+06  -85.00   98.24    4.64   36.44  136.74   99.68
 0.5750  0.342079E+06  0.837904E+05  0.317056E+06  0.634912E+06  0.181887E+07  0.692479E+06  -83.95   99.95    5.39   44.00  131.60  101.60
 0.6225  0.394812E+06  0.985282E+05  0.294036E+06  0.638109E+06  0.196178E+07  0.806004E+06  -82.74  101.93    6.17   52.17  127.24  103.76
 0.6700  0.450074E+06  0.114679E+06  0.271148E+06  0.651404E+06  0.212744E+07  0.927954E+06  -81.34  104.24    6.99   60.77  123.79  106.21
 0.7175  0.507440E+06  0.132324E+06  0.248452E+06  0.675223E+06  0.231029E+07  0.105838E+07  -79.73  106.93    7.83   69.61  121.25  108.98
 0.7650  0.566502E+06  0.151516E+06  0.226396E+06  0.709892E+06  0.250605E+07  0.119723E+07  -77.88  110.07    8.71   78.53  119.60  112.12
 0.8125  0.626974E+06  0.172482E+06  0.204834E+06  0.754986E+06  0.270923E+07  0.134532E+07  -75.75  113.70    9.60   87.48  118.77  115.67
 0.8600  0.687110E+06  0.194590E+06  0.184437E+06  0.808713E+06  0.291178E+07  0.149957E+07  -73.32  117.90   10.53   96.33  118.77  119.68
 0.9075  0.746737E+06  0.218207E+06  0.164874E+06  0.869403E+06  0.310755E+07  0.166098E+07  -70.56  122.71   11.46  105.19  119.49  124.20
 0.9550  0.803363E+06  0.242311E+06  0.146427E+06  0.934397E+06  0.328816E+07  0.182433E+07  -67.46  128.20   12.39  114.11  120.91  129.28
 1.0025  0.855630E+06  0.266539E+06  0.129330E+06  0.100037E+07  0.344493E+07  0.198731E+07  -64.01  134.37   13.33  123.14  122.97  134.95
 1.0500  0.902013E+06  0.290385E+06  0.113367E+06  0.106434E+07  0.356980E+07  0.214642E+07  -60.23  141.24   14.21  132.41  125.59  141.20
 1.0975  0.938050E+06  0.311359E+06  0.987164E+05  0.111893E+07  0.364900E+07  0.228884E+07  -56.19  148.76   15.05  141.88  128.68  147.99
 1.1450  0.963402E+06  0.329341E+06  0.855086E+05  0.116271E+07  0.368053E+07  0.241288E+07  -51.95  156.84   15.89  151.54  132.13  155.28
 1.1925  0.975746E+06  0.342498E+06  0.735726E+05  0.118749E+07  0.365500E+07  0.250861E+07  -47.66  165.37   16.60  161.35  135.77  162.96
 1.2400  0.975679E+06  0.350809E+06  0.628501E+05  0.119592E+07  0.358065E+07  0.257591E+07  -43.42  174.20   17.14  171.23  139.45  170.91
 1.2875  0.962253E+06  0.352584E+06  0.534382E+05  0.118127E+07  0.345444E+07  0.260614E+07  -39.41 -176.84   17.73 -179.00  143.01  178.99
 1.3350  0.939663E+06  0.349615E+06  0.452359E+05  0.115202E+07  0.329834E+07  0.260875E+07  -35.68 -167.82   18.24 -169.34  146.35 -172.86
 1.3825  0.910020E+06  0.342090E+06  0.380728E+05  0.110638E+07  0.311727E+07  0.258535E+07  -32.36 -158.86   18.61 -159.86  149.34 -164.70
 1.4300  0.876701E+06  0.331477E+06  0.318588E+05  0.105262E+07  0.292933E+07  0.254381E+07  -29.44 -149.98   18.82 -150.59  151.98 -156.54
 1.4775  0.840649E+06  0.317148E+06  0.264828E+05  0.986773E+06  0.273502E+07  0.248021E+07  -26.95 -141.23   19.03 -141.55  154.19 -148.40
 1.5250  0.805756E+06  0.301473E+06  0.219481E+05  0.920177E+06  0.255358E+07  0.240660E+07  -24.76 -132.49   19.37 -132.61  156.17 -140.16
 1.5725  0.771696E+06  0.283642E+06  0.180660E+05  0.845530E+06  0.237640E+07  0.231816E+07  -22.87 -123.82   19.57 -123.77  157.84 -131.82
 1.6200  0.740735E+06  0.265791E+06  0.147577E+05  0.773914E+06  0.221622E+07  0.222400E+07  -21.08 -115.12   19.47 -114.96  159.43 -123.22
 1.6675  0.710661E+06  0.246494E+06  0.119846E+05  0.701288E+06  0.206617E+07  0.211504E+07  -19.31 -106.34   19.39 -106.12  161.03 -114.46
 1.7150  0.680949E+06  0.226184E+06  0.963791E+04  0.626548E+06  0.192042E+07  0.198994E+07  -17.55  -97.62   18.87  -97.36  162.59 -105.58
 1.7625  0.651405E+06  0.206235E+06  0.771821E+04  0.557741E+06  0.178419E+07  0.185863E+07  -15.70  -88.91   18.80  -88.63  164.34  -96.49
 1.8100  0.620660E+06  0.186068E+06  0.611426E+04  0.488032E+06  0.164607E+07  0.171819E+07  -13.88  -80.31   17.93  -80.01  166.00  -87.30
 1.8575  0.589616E+06  0.167157E+06  0.481796E+04  0.425793E+06  0.151494E+07  0.157747E+07  -12.04  -71.79   16.35  -71.47  167.70  -77.92
 1.9050  0.557192E+06  0.149174E+06  0.377774E+04  0.369408E+06  0.138744E+07  0.143400E+07  -10.35  -63.47   14.54  -63.10  169.30  -68.54
 1.9525  0.523981E+06  0.132359E+06  0.296737E+04  0.317348E+06  0.126245E+07  0.129013E+07   -8.92  -55.29   11.23  -54.85  170.57  -59.18
 2.0000  0.491303E+06  0.117341E+06  0.232695E+04  0.272554E+06  0.114523E+07  0.115338E+07   -7.76  -47.20    7.83  -46.62  171.62  -49.65
Zone t="Diffraction force - beta =   4.000 deg",I=    41,F=POINT
 0.1000  0.113335E+05  0.234544E+04  0.484169E+06  0.806839E+06  0.161491E+07  0.213806E+05  -89.68   90.88    0.20    1.06  178.40   90.69
 0.1475  0.246143E+05  0.512257E+04  0.476796E+06  0.794628E+06  0.159350E+07  0.465238E+05  -89.49   91.18    0.43    2.33  176.47   91.07
 0.1950  0.428313E+05  0.896597E+04  0.466740E+06  0.778359E+06  0.156796E+07  0.810816E+05  -89.22   91.59    0.74    4.12  173.74   91.60
 0.2425  0.657558E+05  0.138347E+05  0.454173E+06  0.758693E+06  0.154236E+07  0.124703E+06  -88.88   92.12    1.12    6.46  170.19   92.28
 0.2900  0.932995E+05  0.197801E+05  0.439268E+06  0.736418E+06  0.152178E+07  0.177386E+06  -88.47   92.78    1.58    9.39  165.82   93.12
 0.3375  0.125099E+06  0.267306E+05  0.422298E+06  0.712611E+06  0.151222E+07  0.238527E+06  -87.97   93.56    2.09   12.96  160.68   94.10
 0.3850  0.160968E+06  0.347242E+05  0.403566E+06  0.688552E+06  0.152000E+07  0.308036E+06  -87.38   94.49    2.67   17.22  154.94   95.25
 0.4325  0.200572E+06  0.437346E+05  0.383368E+06  0.665625E+06  0.155063E+07  0.385492E+06  -86.70   95.57    3.29   22.22  148.86   96.57
 0.4800  0.243818E+06  0.538777E+05  0.361989E+06  0.645484E+06  0.160843E+07  0.471138E+06  -85.91   96.84    3.96   28.04  142.75   98.07
 0.5275  0.290452E+06  0.652045E+05  0.339701E+06  0.629726E+06  0.169507E+07  0.564847E+06  -85.00   98.31    4.68   34.66  136.95   99.77
 0.5750  0.339911E+06  0.776202E+05  0.317038E+06  0.620334E+06  0.181000E+07  0.665956E+06  -83.95  100.02    5.43   42.02  131.79  101.70
 0.6225  0.392272E+06  0.913982E+05  0.294014E+06  0.618737E+06  0.195089E+07  0.775326E+06  -82.74  102.02    6.23   50.09  127.42  103.88
 0.6700  0.447127E+06  0.106539E+06  0.271121E+06  0.626630E+06  0.211444E+07  0.892898E+06  -81.34  104.36    7.05   58.69  123.95  106.34
 0.7175  0.504054E+06  0.123131E+06  0.248421E+06  0.644662E+06  0.229514E+07  0.101875E+07  -79.74  107.08    7.91   67.65  121.38  109.12
 0.7650  0.562644E+06  0.141233E+06  0.226362E+06  0.673403E+06  0.248871E+07  0.115284E+07  -77.89  110.25    8.80   76.79  119.71  112.28
 0.8125  0.622608E+06  0.161075E+06  0.204797E+06  0.712636E+06  0.268969E+07  0.129600E+07  -75.77  113.93    9.70   86.02  118.86  115.84
 0.8600  0.682220E+06  0.182060E+06  0.184398E+06  0.760833E+06  0.289006E+07  0.144530E+07  -73.35  118.18   10.64   95.18  118.83  119.87
 0.9075  0.741304E+06  0.204556E+06  0.164833E+06  0.816440E+06  0.308373E+07  0.160171E+07  -70.60  123.06   11.57  104.37  119.53  124.42
 0.9550  0.797400E+06  0.227594E+06  0.146387E+06  0.876955E+06  0.326239E+07  0.176024E+07  -67.51  128.63   12.52  113.60  120.92  129.53
 1.0025  0.849169E+06  0.250839E+06  0.129290E+06  0.939197E+06  0.341746E+07  0.191868E+07  -64.07  134.89   13.47  122.93  122.96  135.21
 1.0500  0.895114E+06  0.273821E+06  0.113328E+06  0.100031E+07  0.354100E+07  0.207362E+07  -60.32  141.85   14.37  132.46  125.55  141.49
 1.0975  0.930837E+06  0.294148E+06  0.986789E+05  0.105316E+07  0.361944E+07  0.221268E+07  -56.30  149.47   15.23  142.18  128.61  148.31
 1.1450  0.956017E+06  0.311714E+06  0.854719E+05  0.109635E+07  0.365082E+07  0.233417E+07  -52.08  157.66   16.08  152.07  132.03  155.62
 1.1925  0.968373E+06  0.324742E+06  0.735350E+05  0.112185E+07  0.362594E+07  0.242841E+07  -47.82  166.31   16.82  162.08  135.64  163.33
 1.2400  0.968504E+06  0.333211E+06  0.628104E+05  0.113215E+07  0.355293E+07  0.249526E+07  -43.61  175.25   17.39  172.15  139.29  171.30
 1.2875  0.955476E+06  0.335460E+06  0.533948E+05  0.112055E+07  0.342877E+07  0.252623E+07  -39.62 -175.66   18.00 -177.91  142.82  179.40
 1.3350  0.933434E+06  0.333204E+06  0.451868E+05  0.109510E+07  0.327520E+07  0.253042E+07  -35.92 -166.52   18.54 -168.09  146.14 -172.44
 1.3825  0.904453E+06  0.326595E+06  0.380172E+05  0.105394E+07  0.309701E+07  0.250933E+07  -32.62 -157.44   18.94 -158.48  149.10 -164.26
 1.4300  0.871852E+06  0.317035E+06  0.317966E+05  0.100493E+07  0.291201E+07  0.247051E+07  -29.70 -148.45   19.18 -149.07  151.72 -156.09
 1.4775  0.836532E+06  0.303892E+06  0.264146E+05  0.944124E+06  0.272060E+07  0.241009E+07  -27.22 -139.60   19.43 -139.91  153.93 -147.95
 1.5250  0.802327E+06  0.289455E+06  0.218747E+05  0.882439E+06  0.254177E+07  0.233969E+07  -25.03 -130.75   19.79 -130.86  155.91 -139.71
 1.5725  0.768871E+06  0.272917E+06  0.179892E+05  0.812789E+06  0.236685E+07  0.225454E+07  -23.12 -121.98   20.00 -121.90  157.60 -131.38
 1.6200  0.738397E+06  0.256338E+06  0.146797E+05  0.745837E+06  0.220847E+07  0.216342E+07  -21.31 -113.18   19.93 -113.00  159.20 -122.79
 1.6675  0.708692E+06  0.238331E+06  0.119076E+05  0.677654E+06  0.205977E+07  0.205741E+07  -19.51 -104.31   19.85 -104.07  160.83 -114.05
 1.7150  0.679217E+06  0.219289E+06  0.956391E+04  0.607156E+06  0.191492E+07  0.193513E+07  -17.72  -95.49   19.32  -95.21  162.42 -105.20
 1.7625  0.649811E+06  0.200536E+06  0.764948E+04  0.542078E+06  0.177928E+07  0.180626E+07  -15.84  -86.70   19.22  -86.41  164.19  -96.16
 1.8100  0.619115E+06  0.181498E+06  0.605244E+04  0.475873E+06  0.164147E+07  0.166795E+07  -13.99  -78.03   18.30  -77.71  165.89  -87.03
 1.8575  0.588073E+06  0.163597E+06  0.476414E+04  0.416590E+06  0.151051E+07  0.152881E+07  -12.13  -69.44   16.65  -69.10  167.61  -77.72
 1.9050  0.555618E+06  0.146516E+06  0.373275E+04  0.362701E+06  0.138310E+07  0.138658E+07  -10.41  -61.08   14.75  -60.68  169.23  -68.43
 1.9525  0.522347E+06  0.130498E+06  0.293126E+04  0.312811E+06  0.125811E+07  0.124368E+07   -8.96  -52.87   11.33  -52.38  170.52  -59.18
 2.0000  0.489606E+06  0.116145E+06  0.229964E+04  0.269744E+06  0.114089E+07  0.110745E+07   -7.78  -44.78    7.81  -44.15  171.58  -49.79
Zone t="Diffraction force - beta =   5.000 deg",I=    41,F=POINT
 0.1000  0.112626E+05  0.213997E+04  0.484169E+06  0.806826E+06  0.161489E+07  0.204989E+05  -89.68   90.93    0.20    1.00  178.41   90.71
 0.1475  0.244599E+05  0.467623E+04  0.476796E+06  0.794571E+06  0.159345E+07  0.446079E+05  -89.49   91.23    0.43    2.19  176.50   91.09
 0.1950  0.425616E+05  0.818915E+04  0.466739E+06  0.778180E+06  0.156779E+07  0.777450E+05  -89.22   91.65    0.74    3.87  173.79   91.63
 0.2425  0.653405E+05  0.126419E+05  0.454172E+06  0.758263E+06  0.154194E+07  0.119577E+06  -88.88   92.18    1.13    6.06  170.28   92.31
 0.2900  0.927074E+05  0.180870E+05  0.439266E+06  0.735533E+06  0.152093E+07  0.170107E+06  -88.46   92.83    1.59    8.82  165.93   93.15