VARIABLES="w (rad/s)"
"abs(F   1   1)" "angle(F   1   1)"
"abs(F   1   2)" "angle(F   1   2)"
"abs(F   1   3)" "angle(F   1   3)"
"abs(F   1   4)" "angle(F   1   4)"
"abs(F   1   5)" "angle(F   1   5)"
"abs(F   1   6)" "angle(F   1   6)"
Zone t="FKforce - beta =   0.000",I=    41,F=POINT
  0.1000000E+00  0.4974590E+04 -0.1567345E+01  0.3261724E+00  0.3139721E+01  0.4855240E+06  0.3397893E-02  0.8092069E+06  0.5057446E-02  0.1618562E+07  0.3131308E+01  0.8283485E+04  0.1576155E+01
  0.1475000E+00  0.1075824E+05 -0.1563391E+01  0.2509944E+00 -0.3129677E+01  0.4797352E+06  0.7392530E-02  0.7995583E+06  0.1100310E-01  0.1599823E+07  0.3119089E+01  0.1791416E+05  0.1581934E+01
  0.1950000E+00  0.1864794E+05 -0.1557892E+01  0.1690655E+00 -0.3027627E+01  0.4718320E+06  0.1292042E-01  0.7863864E+06  0.1923095E-01  0.1574920E+07  0.3101964E+01  0.3105199E+05  0.1590196E+01
  0.2425000E+00  0.2853627E+05 -0.1550866E+01  0.9431301E+00 -0.3101782E+01  0.4619159E+06  0.1998146E-01  0.7698611E+06  0.2974082E-01  0.1544819E+07  0.3079757E+01  0.4751786E+05  0.1600834E+01
  0.2900000E+00  0.4028959E+05 -0.1542279E+01  0.2251827E+01 -0.3101304E+01  0.4501124E+06  0.2857550E-01  0.7501886E+06  0.4253310E-01  0.1510725E+07  0.3052287E+01  0.6709004E+05  0.1613798E+01
  0.3375000E+00  0.5375047E+05 -0.1532170E+01  0.3899525E+01 -0.3086251E+01  0.4365693E+06  0.3870219E-01  0.7276182E+06  0.5760744E-01  0.1474025E+07  0.3019413E+01  0.8950652E+05  0.1629089E+01
  0.3850000E+00  0.6874065E+05 -0.1520542E+01  0.6671201E+01 -0.3070390E+01  0.4214538E+06  0.5036100E-01  0.7024248E+06  0.7496407E-01  0.1436269E+07  0.2981085E+01  0.1144714E+06  0.1646616E+01
  0.4325000E+00  0.8506432E+05 -0.1507375E+01  0.9809503E+01 -0.3045926E+01  0.4049482E+06  0.6355117E-01  0.6749174E+06  0.9460286E-01  0.1399069E+07  0.2937414E+01  0.1416597E+06  0.1666483E+01
  0.4800000E+00  0.1025114E+06 -0.1492686E+01  0.1497554E+02 -0.3027356E+01  0.3872483E+06  0.7827142E-01  0.6454175E+06  0.1165242E+00  0.1364052E+07  0.2888746E+01  0.1707236E+06  0.1688660E+01
  0.5275000E+00  0.1208614E+06 -0.1476471E+01  0.2114668E+02 -0.3000821E+01  0.3685573E+06  0.9452026E-01  0.6142662E+06  0.1407279E+00  0.1332718E+07  0.2835720E+01  0.2012976E+06  0.1713139E+01
  0.5750000E+00  0.1398870E+06 -0.1458732E+01  0.2894422E+02 -0.2973471E+01  0.3490845E+06  0.1122954E+00  0.5818102E+06  0.1672136E+00  0.1306355E+07  0.2779317E+01  0.2330061E+06  0.1739929E+01
  0.6225000E+00  0.1593579E+06 -0.1439471E+01  0.3896263E+02 -0.2946001E+01  0.3290396E+06  0.1315941E+00  0.5483998E+06  0.1959817E+00  0.1285904E+07  0.2720844E+01  0.2654683E+06  0.1769026E+01
  0.6700000E+00  0.1790443E+06 -0.1418696E+01  0.5025263E+02 -0.2912310E+01  0.3086309E+06  0.1524126E+00  0.5143807E+06  0.2270330E+00  0.1271877E+07  0.2661863E+01  0.2983076E+06  0.1800436E+01
  0.7175000E+00  0.1987207E+06 -0.1396408E+01  0.6380865E+02 -0.2879282E+01  0.2880604E+06  0.1747463E+00  0.4800890E+06  0.2603673E+00  0.1264297E+07  0.2604063E+01  0.3311502E+06  0.1834147E+01
  0.7650000E+00  0.2181686E+06 -0.1372614E+01  0.7936105E+02 -0.2843636E+01  0.2675214E+06  0.1985896E+00  0.4458469E+06  0.2959842E+00  0.1262713E+07  0.2549097E+01  0.3636382E+06  0.1870170E+01
  0.8125000E+00  0.2371797E+06 -0.1347318E+01  0.9739217E+02 -0.2803990E+01  0.2471956E+06  0.2239351E+00  0.4119545E+06  0.3338850E+00  0.1266248E+07  0.2498425E+01  0.3954288E+06  0.1908498E+01
  0.8600000E+00  0.2555590E+06 -0.1320531E+01  0.1173513E+03 -0.2764599E+01  0.2272505E+06  0.2507747E+00  0.3786913E+06  0.3740698E+00  0.1273717E+07  0.2453205E+01  0.4262049E+06  0.1949136E+01
  0.9075000E+00  0.2731259E+06 -0.1292264E+01  0.1393129E+03 -0.2723056E+01  0.2078377E+06  0.2790978E+00  0.3463107E+06  0.4165360E+00  0.1283735E+07  0.2414231E+01  0.4556691E+06  0.1992077E+01
  0.9550000E+00  0.2897164E+06 -0.1262528E+01  0.1632610E+03 -0.2676974E+01  0.1890906E+06  0.3088924E+00  0.3150334E+06  0.4612871E+00  0.1294862E+07  0.2381957E+01  0.4835562E+06  0.2037328E+01
  0.1002500E+01  0.3051849E+06 -0.1231335E+01  0.1891158E+03 -0.2628844E+01  0.1711246E+06  0.3401440E+00  0.2850502E+06  0.5083256E+00  0.1305690E+07  0.2356532E+01  0.5096302E+06  0.2084886E+01
  0.1050000E+01  0.3194048E+06 -0.1198705E+01  0.2163641E+03 -0.2579716E+01  0.1540350E+06  0.3728356E+00  0.2565216E+06  0.5576492E+00  0.1314931E+07  0.2337872E+01  0.5336827E+06  0.2134751E+01
  0.1097500E+01  0.3322681E+06 -0.1164655E+01  0.2450853E+03 -0.2527581E+01  0.1378975E+06  0.4069475E+00  0.2295732E+06  0.6092560E+00  0.1321468E+07  0.2325735E+01  0.5555410E+06  0.2186919E+01
  0.1145000E+01  0.3436868E+06 -0.1129209E+01  0.2749120E+03 -0.2473652E+01  0.1227689E+06  0.4424567E+00  0.2043005E+06  0.6631504E+00  0.1324384E+07  0.2319773E+01  0.5750614E+06  0.2241395E+01
  0.1192500E+01  0.3535915E+06 -0.1092393E+01  0.3053226E+03 -0.2416736E+01  0.1086870E+06  0.4793364E+00  0.1807669E+06  0.7193367E+00  0.1322967E+07  0.2319588E+01  0.5921325E+06  0.2298176E+01
  0.1240000E+01  0.3619316E+06 -0.1054238E+01  0.3362816E+03 -0.2358061E+01  0.9567204E+05  0.5175554E+00  0.1590068E+06  0.7778067E+00  0.1316717E+07  0.2324758E+01  0.6066731E+06  0.2357257E+01
  0.1287500E+01  0.3686740E+06 -0.1014778E+01  0.3669565E+03 -0.2296946E+01  0.8372751E+05  0.5570785E+00  0.1390272E+06  0.8385640E+00  0.1305326E+07  0.2334862E+01  0.6186266E+06  0.2418643E+01
  0.1335000E+01  0.3738014E+06 -0.9740548E+00  0.3974727E+03 -0.2233059E+01  0.7284228E+05  0.5978642E+00  0.1208108E+06  0.9016154E+00  0.1288667E+07  0.2349497E+01  0.6279660E+06  0.2482333E+01
  0.1382500E+01  0.3773128E+06 -0.9321141E+00  0.4269062E+03 -0.2167348E+01  0.6299191E+05  0.6398655E+00  0.1043192E+06  0.9669588E+00  0.1266767E+07  0.2368276E+01  0.6346877E+06  0.2548321E+01
  0.1430000E+01  0.3792201E+06 -0.8890097E+00  0.4550338E+03 -0.2099368E+01  0.5414063E+05  0.6830279E+00  0.8949271E+05  0.1034595E+01  0.1239788E+07  0.2390837E+01  0.6388048E+06  0.2616611E+01
  0.1477500E+01  0.3795479E+06 -0.8448032E+00  0.4816270E+03 -0.2028886E+01  0.4624328E+05  0.7272885E+00  0.7625972E+05  0.1104524E+01  0.1208009E+07  0.2416841E+01  0.6403536E+06  0.2687198E+01
  0.1525000E+01  0.3783325E+06 -0.7995660E+00  0.5055657E+03 -0.1956310E+01  0.3924697E+05  0.7725759E+00  0.6453199E+05  0.1176744E+01  0.1171799E+07  0.2445966E+01  0.6393844E+06  0.2760085E+01
  0.1572500E+01  0.3756193E+06 -0.7533796E+00  0.5270060E+03 -0.1881232E+01  0.3309328E+05  0.8188071E+00  0.5421540E+05  0.1251263E+01  0.1131598E+07  0.2477908E+01  0.6359641E+06  0.2835264E+01
  0.1620000E+01  0.3714630E+06 -0.7063382E+00  0.5452617E+03 -0.1803989E+01  0.2771982E+05  0.8658869E+00  0.4520695E+05  0.1328085E+01  0.1087898E+07  0.2512372E+01  0.6301672E+06  0.2912736E+01
  0.1667500E+01  0.3659262E+06 -0.6585507E+00  0.5599139E+03 -0.1724363E+01  0.2306194E+05  0.9137046E+00  0.3740054E+05  0.1407204E+01  0.1041224E+07  0.2549076E+01  0.6220802E+06  0.2992501E+01
  0.1715000E+01  0.3590781E+06 -0.6101432E+00  0.5705355E+03 -0.1642525E+01  0.1905421E+05  0.9621334E+00  0.3068793E+05  0.1488626E+01  0.9921187E+06  0.2587732E+01  0.6117986E+06  0.3074553E+01
  0.1762500E+01  0.3509946E+06 -0.5612622E+00  0.5765949E+03 -0.1558292E+01  0.1563178E+05  0.1011025E+01  0.2496288E+05  0.1572345E+01  0.9411316E+06  0.2628055E+01  0.5994219E+06 -0.3124294E+01
  0.1810000E+01  0.3417578E+06 -0.5120772E+00  0.5778692E+03 -0.1471799E+01  0.1273144E+05  0.1060209E+01  0.2012028E+05  0.1658385E+01  0.8888046E+06  0.2669746E+01  0.5850599E+06 -0.3037675E+01
  0.1857500E+01  0.3314553E+06 -0.4627867E+00  0.5739596E+03 -0.1383048E+01  0.1029262E+05  0.1109484E+01  0.1606027E+05  0.1746717E+01  0.8356613E+06  0.2712495E+01  0.5688217E+06 -0.2948778E+01
  0.1905000E+01  0.3201808E+06 -0.4136224E+00  0.5645512E+03 -0.1291958E+01  0.8258096E+04  0.1158619E+01  0.1268757E+05  0.1837372E+01  0.7822052E+06  0.2755970E+01  0.5508263E+06 -0.2857609E+01
  0.1952500E+01  0.3080344E+06 -0.3648557E+00  0.5494269E+03 -0.1198480E+01  0.6574526E+04  0.1207338E+01  0.9913177E+04  0.1930345E+01  0.7289056E+06  0.2799803E+01  0.5311931E+06 -0.2764171E+01
  0.2000000E+01  0.2951228E+06 -0.3168061E+00  0.5283471E+03 -0.1102870E+01  0.5192864E+04  0.1255323E+01  0.7655224E+04  0.2025656E+01  0.6762042E+06  0.2843596E+01  0.5100480E+06 -0.2668474E+01
Zone t="FKforce - beta =   1.000",I=    41,F=POINT
  0.1000000E+00  0.4973833E+04 -0.1567345E+01  0.8681591E+02 -0.1568783E+01  0.4855241E+06  0.3427025E-02  0.8092069E+06  0.4608918E-02  0.1618562E+07  0.3131354E+01  0.7992715E+04  0.1576225E+01
  0.1475000E+00  0.1075660E+05 -0.1563332E+01  0.1877591E+03 -0.1565085E+01  0.4797352E+06  0.7455911E-02  0.7995559E+06  0.1002257E-01  0.1599821E+07  0.3119188E+01  0.1728530E+05  0.1582101E+01
  0.1950000E+00  0.1864509E+05 -0.1557780E+01  0.3254539E+03 -0.1559538E+01  0.4718317E+06  0.1303120E-01  0.7863794E+06  0.1750572E-01  0.1574913E+07  0.3102138E+01  0.2996190E+05  0.1590553E+01
  0.2425000E+00  0.2853188E+05 -0.1550686E+01  0.4980379E+03 -0.1552779E+01  0.4619150E+06  0.2015278E-01  0.7698418E+06  0.2705005E-01  0.1544804E+07  0.3080025E+01  0.4585004E+05  0.1601401E+01
  0.2900000E+00  0.4028331E+05 -0.1542039E+01  0.7031721E+03 -0.1544935E+01  0.4501107E+06  0.2882050E-01  0.7501496E+06  0.3864463E-01  0.1510694E+07  0.3052670E+01  0.6473517E+05  0.1614570E+01
  0.3375000E+00  0.5374193E+05 -0.1531845E+01  0.9381660E+03 -0.1535555E+01  0.4365665E+06  0.3903399E-01  0.7275524E+06  0.5227569E-01  0.1473966E+07  0.3019929E+01  0.8636563E+05  0.1630095E+01
  0.3850000E+00  0.6872945E+05 -0.1520111E+01  0.1199821E+04 -0.1525441E+01  0.4214492E+06  0.5079274E-01  0.7023168E+06  0.6792685E-01  0.1436173E+07  0.2981752E+01  0.1104555E+06  0.1647959E+01
  0.4325000E+00  0.8504988E+05 -0.1506833E+01  0.1484926E+04 -0.1513053E+01  0.4049414E+06  0.6409588E-01  0.6747474E+06  0.8557820E-01  0.1398923E+07  0.2938248E+01  0.1366915E+06  0.1668170E+01
  0.4800000E+00  0.1024930E+06 -0.1492022E+01  0.1789677E+04 -0.1499720E+01  0.3872380E+06  0.7894226E-01  0.6451678E+06  0.1052065E+00  0.1363837E+07  0.2889759E+01  0.1647392E+06  0.1690724E+01
  0.5275000E+00  0.1208382E+06 -0.1475668E+01  0.2110354E+04 -0.1485084E+01  0.3685432E+06  0.9533022E-01  0.6139135E+06  0.1267835E+00  0.1332422E+07  0.2836921E+01  0.1942458E+06  0.1715629E+01
  0.5750000E+00  0.1398580E+06 -0.1457779E+01  0.2443048E+04 -0.1468847E+01  0.3490656E+06  0.1132575E+00  0.5813306E+06  0.1502775E+00  0.1305960E+07  0.2780711E+01  0.2248519E+06  0.1742896E+01
  0.6225000E+00  0.1593216E+06 -0.1438355E+01  0.2783831E+04 -0.1451367E+01  0.3290152E+06  0.1327211E+00  0.5477675E+06  0.1756517E+00  0.1285398E+07  0.2722432E+01  0.2561885E+06  0.1772491E+01
  0.6700000E+00  0.1789990E+06 -0.1417401E+01  0.3128638E+04 -0.1432528E+01  0.3086002E+06  0.1537174E+00  0.5135678E+06  0.2028624E+00  0.1271245E+07  0.2663643E+01  0.2878940E+06  0.1804450E+01
  0.7175000E+00  0.1986639E+06 -0.1394926E+01  0.3473972E+04 -0.1412071E+01  0.2880228E+06  0.1762416E+00  0.4790702E+06  0.2318580E+00  0.1263533E+07  0.2606034E+01  0.3196092E+06  0.1838742E+01
  0.7650000E+00  0.2180978E+06 -0.1370928E+01  0.3815838E+04 -0.1390392E+01  0.2674762E+06  0.2002878E+00  0.4445948E+06  0.2625828E+00  0.1261807E+07  0.2551255E+01  0.3509926E+06  0.1875390E+01
  0.8125000E+00  0.2370917E+06 -0.1345420E+01  0.4150793E+04 -0.1367326E+01  0.2471425E+06  0.2258487E+00  0.4104453E+06  0.2949671E+00  0.1265199E+07  0.2500770E+01  0.3817146E+06  0.1914378E+01
  0.8600000E+00  0.2554498E+06 -0.1318408E+01  0.4475598E+04 -0.1342831E+01  0.2271892E+06  0.2529158E+00  0.3769046E+06  0.3289334E+00  0.1272520E+07  0.2455736E+01  0.4114676E+06  0.1955705E+01
  0.9075000E+00  0.2729910E+06 -0.1289903E+01  0.4787133E+04 -0.1316980E+01  0.2077681E+06  0.2814783E+00  0.3442273E+06  0.3643867E+00  0.1282390E+07  0.2416955E+01  0.4399720E+06  0.1999374E+01
  0.9550000E+00  0.2895510E+06 -0.1259917E+01  0.5082706E+04 -0.1289731E+01  0.1890129E+06  0.3115238E+00  0.3126394E+06  0.4012213E+00  0.1293366E+07  0.2384881E+01  0.4669699E+06  0.2045384E+01
  0.1002500E+01  0.3049831E+06 -0.1228465E+01  0.5359880E+04 -0.1261093E+01  0.1710391E+06  0.3430374E+00  0.2823363E+06  0.4393093E+00  0.1304040E+07  0.2359666E+01  0.4922352E+06  0.2093733E+01
  0.1050000E+01  0.3191601E+06 -0.1195563E+01  0.5616716E+04 -0.1231098E+01  0.1539422E+06  0.3760020E+00  0.2534867E+06  0.4784960E+00  0.1313121E+07  0.2341228E+01  0.5155724E+06  0.2144412E+01
  0.1097500E+01  0.3319737E+06 -0.1161233E+01  0.5851388E+04 -0.1199720E+01  0.1377982E+06  0.4103970E+00  0.2262186E+06  0.5186027E+00  0.1319490E+07  0.2329326E+01  0.5368126E+06  0.2197428E+01
  0.1145000E+01  0.3433354E+06 -0.1125496E+01  0.6062059E+04 -0.1166959E+01  0.1226641E+06  0.4461987E+00  0.2006367E+06  0.5594186E+00  0.1322229E+07  0.2323611E+01  0.5558215E+06  0.2252769E+01
  0.1192500E+01  0.3531749E+06 -0.1088381E+01  0.6247911E+04 -0.1132839E+01  0.1085777E+06  0.4833798E+00  0.1768100E+06  0.6006796E+00  0.1320626E+07  0.2323686E+01  0.5724922E+06  0.2310436E+01
  0.1240000E+01  0.3614417E+06 -0.1049918E+01  0.6408038E+04 -0.1097378E+01  0.9555927E+05  0.5219083E+00  0.1547803E+06  0.6420606E+00  0.1314178E+07  0.2329128E+01  0.5867438E+06  0.2370424E+01
  0.1287500E+01  0.3681018E+06 -0.1010144E+01  0.6541807E+04 -0.1060564E+01  0.8361255E+05  0.5617480E+00  0.1345610E+06  0.6831875E+00  0.1302578E+07  0.2339517E+01  0.5985292E+06  0.2432722E+01
  0.1335000E+01  0.3731385E+06 -0.9690999E+00  0.6648729E+04 -0.1022415E+01  0.7272643E+05  0.6028557E+00  0.1161435E+06  0.7235773E+00  0.1285697E+07  0.2354444E+01  0.6078155E+06  0.2497332E+01
  0.1382500E+01  0.3765499E+06 -0.9268340E+00  0.6728865E+04 -0.9829426E+00  0.6287636E+05  0.6451837E+00  0.9949474E+05  0.7626379E+00  0.1263564E+07  0.2373524E+01  0.6146001E+06  0.2564244E+01
  0.1430000E+01  0.3783482E+06 -0.8834012E+00  0.6782027E+04 -0.9421785E+00  0.5402664E+05  0.6886756E+00  0.8456336E+05  0.7996001E+00  0.1236342E+07  0.2396393E+01  0.6188959E+06  0.2633452E+01
  0.1477500E+01  0.3785586E+06 -0.8388659E+00  0.6808707E+04 -0.9001393E+00  0.4613195E+05  0.7332667E+00  0.7128260E+05  0.8335077E+00  0.1204312E+07  0.2422708E+01  0.6207379E+06  0.2704943E+01
  0.1525000E+01  0.3772173E+06 -0.7933003E+00  0.6808962E+04 -0.8568410E+00  0.3913939E+05  0.7788828E+00  0.5957516E+05  0.8631538E+00  0.1167845E+07  0.2452145E+01  0.6201692E+06  0.2778712E+01
  0.1572500E+01  0.3743706E+06 -0.7467895E+00  0.6783366E+04 -0.8123336E+00  0.3299035E+05  0.8254392E+00  0.4935120E+05  0.8869163E+00  0.1127384E+07  0.2484398E+01  0.6172517E+06  0.2854747E+01
  0.1620000E+01  0.3700739E+06 -0.6994302E+00  0.6732601E+04 -0.7666805E+00  0.2762232E+05  0.8728365E+00  0.4051834E+05  0.9027590E+00  0.1083423E+07  0.2519170E+01  0.6120548E+06  0.2933035E+01
  0.1667500E+01  0.3643905E+06 -0.6513354E+00  0.6657244E+04 -0.7199150E+00  0.2297051E+05  0.9209614E+00  0.3297946E+05  0.9080002E+00  0.1036492E+07  0.2556171E+01  0.6046565E+06  0.3013562E+01
  0.1715000E+01  0.3573910E+06 -0.6026350E+00  0.6557976E+04 -0.6721185E+00  0.1896932E+05  0.9696822E+00  0.2663903E+05  0.8992740E+00  0.9871378E+06  0.2595113E+01  0.5951442E+06  0.3096313E+01
  0.1762500E+01  0.3491527E+06 -0.5534808E+00  0.6435535E+04 -0.6233801E+00  0.1555373E+05  0.1018846E+01  0.2140338E+05  0.8725176E+00  0.9359137E+06  0.2635701E+01  0.5836090E+06 -0.3101914E+01
  0.1810000E+01  0.3397592E+06 -0.5040491E+00  0.6290780E+04 -0.5737872E+00  0.1266040E+05  0.1068274E+01  0.1718288E+05  0.8234098E+00  0.8833648E+06  0.2677635E+01  0.5701477E+06 -0.3014773E+01
  0.1857500E+01  0.3293001E+06 -0.4545452E+00  0.6124617E+04 -0.5235061E+00  0.1022862E+05  0.1117760E+01  0.1388824E+05  0.7485567E+00  0.8300209E+06  0.2720594E+01  0.5548616E+06 -0.2925469E+01
  0.1905000E+01  0.3178714E+06 -0.4052099E+00  0.5938028E+04 -0.4726927E+00  0.8201009E+04  0.1167061E+01  0.1142363E+05  0.6480537E+00  0.7763871E+06  0.2764235E+01  0.5378546E+06 -0.2834030E+01
  0.1952500E+01  0.3055756E+06 -0.3563258E+00  0.5732044E+04 -0.4215581E+00  0.6524144E+04  0.1215893E+01  0.9673975E+04  0.5283667E+00  0.7229406E+06  0.2808184E+01  0.5192360E+06 -0.2740486E+01
  0.2000000E+01  0.2925219E+06 -0.3082256E+00  0.5507861E+04 -0.3703635E+00  0.5148870E+04  0.1263923E+01  0.8495368E+04  0.4028610E+00  0.6701238E+06  0.2852025E+01  0.4991172E+06 -0.2644876E+01
Zone t="FKforce - beta =   2.000",I=    41,F=POINT
  0.1000000E+00  0.4971557E+04 -0.1567306E+01  0.1736114E+03 -0.1568496E+01  0.4855240E+06  0.3455115E-02  0.8092071E+06  0.4159002E-02  0.1618561E+07  0.3131402E+01  0.7699485E+04  0.1576432E+01
  0.1475000E+00  0.1075168E+05 -0.1563272E+01  0.3754547E+03 -0.1564824E+01  0.4797350E+06  0.7517022E-02  0.7995546E+06  0.9039028E-02  0.1599817E+07  0.3119294E+01  0.1665123E+05  0.1582302E+01
  0.1950000E+00  0.1863655E+05 -0.1557678E+01  0.6508170E+03 -0.1558028E+01  0.4718314E+06  0.1313800E-01  0.7863733E+06  0.1577524E-01  0.1574905E+07  0.3102324E+01  0.2886283E+05  0.1590944E+01
  0.2425000E+00  0.2851879E+05 -0.1550529E+01  0.9959074E+03 -0.1551394E+01  0.4619143E+06  0.2031796E-01  0.7698299E+06  0.2435079E-01  0.1544785E+07  0.3080312E+01  0.4416809E+05  0.1601946E+01
  0.2900000E+00  0.4026475E+05 -0.1541803E+01  0.1406122E+04 -0.1543085E+01  0.4501091E+06  0.2905671E-01  0.7501271E+06  0.3474399E-01  0.1510655E+07  0.3053079E+01  0.6236098E+05  0.1615351E+01
  0.3375000E+00  0.5371702E+05 -0.1531529E+01  0.1875934E+04 -0.1533250E+01  0.4365637E+06  0.3935390E-01  0.7275086E+06  0.4692727E-01  0.1473898E+07  0.3020481E+01  0.8319823E+05  0.1631135E+01
  0.3850000E+00  0.6869728E+05 -0.1519696E+01  0.2399121E+04 -0.1522115E+01  0.4214446E+06  0.5120900E-01  0.7022448E+06  0.6086736E-01  0.1436059E+07  0.2982466E+01  0.1064061E+06  0.1649301E+01
  0.4325000E+00  0.8500952E+05 -0.1506316E+01  0.2968935E+04 -0.1509239E+01  0.4049344E+06  0.6462110E-01  0.6746394E+06  0.7652377E-01  0.1398748E+07  0.2939141E+01  0.1316822E+06  0.1669882E+01
  0.4800000E+00  0.1024435E+06 -0.1491380E+01  0.3578046E+04 -0.1495006E+01  0.3872280E+06  0.7958906E-01  0.6450099E+06  0.9384974E-01  0.1363583E+07  0.2890841E+01  0.1587053E+06  0.1692832E+01
  0.5275000E+00  0.1207784E+06 -0.1474893E+01  0.4218782E+04 -0.1479275E+01  0.3685292E+06  0.9611114E-01  0.6136958E+06  0.1127882E+00  0.1332065E+07  0.2838202E+01  0.1871369E+06  0.1718174E+01
  0.5750000E+00  0.1397865E+06 -0.1456856E+01  0.4883188E+04 -0.1462075E+01  0.3490468E+06  0.1141851E+00  0.5810395E+06  0.1332750E+00  0.1305484E+07  0.2782195E+01  0.2166305E+06  0.1745916E+01
  0.6225000E+00  0.1592368E+06 -0.1437276E+01  0.5563477E+04 -0.1443352E+01  0.3289910E+06  0.1338078E+00  0.5473889E+06  0.1552317E+00  0.1284785E+07  0.2724117E+01  0.2468328E+06  0.1776035E+01
  0.6700000E+00  0.1788991E+06 -0.1416156E+01  0.6251526E+04 -0.1423168E+01  0.3085697E+06  0.1549756E+00  0.5130909E+06  0.1785708E+00  0.1270480E+07  0.2665524E+01  0.2773971E+06  0.1808544E+01
  0.7175000E+00  0.1985467E+06 -0.1393497E+01  0.6939655E+04 -0.1401491E+01  0.2879852E+06  0.1776834E+00  0.4784866E+06  0.2031870E+00  0.1262606E+07  0.2608104E+01  0.3079788E+06  0.1843435E+01
  0.7650000E+00  0.2179606E+06 -0.1369305E+01  0.7620188E+04 -0.1378387E+01  0.2674312E+06  0.2019254E+00  0.4438962E+06  0.2289605E+00  0.1260711E+07  0.2553507E+01  0.3382496E+06  0.1880710E+01
  0.8125000E+00  0.2369315E+06 -0.1343590E+01  0.8285971E+04 -0.1353824E+01  0.2470894E+06  0.2276941E+00  0.4096283E+06  0.2557483E+00  0.1263930E+07  0.2503199E+01  0.3678958E+06  0.1920366E+01
  0.8600000E+00  0.2552629E+06 -0.1316360E+01  0.8930358E+04 -0.1327771E+01  0.2271279E+06  0.2549807E+00  0.3759717E+06  0.2833807E+00  0.1271074E+07  0.2458340E+01  0.3966241E+06  0.1962395E+01
  0.9075000E+00  0.2727732E+06 -0.1287626E+01  0.9547109E+04 -0.1300280E+01  0.2076985E+06  0.2837742E+00  0.3431834E+06  0.3116674E+00  0.1280770E+07  0.2419737E+01  0.4241644E+06  0.2006806E+01
  0.9550000E+00  0.2892974E+06 -0.1257399E+01  0.1013070E+05 -0.1271317E+01  0.1889353E+06  0.3140619E+00  0.3114965E+06  0.3403732E+00  0.1291572E+07  0.2387846E+01  0.4502721E+06  0.2053587E+01
  0.1002500E+01  0.3046885E+06 -0.1225696E+01  0.1067595E+05 -0.1240981E+01  0.1709537E+06  0.3458286E+00  0.2811152E+06  0.3692225E+00  0.1302070E+07  0.2362821E+01  0.4747308E+06  0.2102731E+01
  0.1050000E+01  0.3188187E+06 -0.1192533E+01  0.1117853E+05 -0.1209165E+01  0.1538496E+06  0.3790565E+00  0.2522113E+06  0.3978921E+00  0.1310974E+07  0.2344587E+01  0.4973556E+06  0.2154240E+01
  0.1097500E+01  0.3315790E+06 -0.1157931E+01  0.1163474E+05 -0.1175952E+01  0.1376991E+06  0.4137250E+00  0.2249259E+06  0.4259859E+00  0.1317163E+07  0.2332899E+01  0.5179833E+06  0.2208105E+01
  0.1145000E+01  0.3428800E+06 -0.1121914E+01  0.1204191E+05 -0.1141353E+01  0.1225594E+06  0.4498095E+00  0.1993686E+06  0.4530371E+00  0.1319715E+07  0.2327413E+01  0.5364878E+06  0.2264317E+01
  0.1192500E+01  0.3526518E+06 -0.1084509E+01  0.1239722E+05 -0.1105376E+01  0.1084685E+06  0.4872820E+00  0.1756204E+06  0.4784832E+00  0.1317919E+07  0.2327729E+01  0.5527649E+06  0.2322874E+01
  0.1240000E+01  0.3608428E+06 -0.1045749E+01  0.1269899E+05 -0.1068039E+01  0.9544670E+05  0.5261099E+00  0.1537317E+06  0.5016420E+00  0.1311270E+07  0.2333424E+01  0.5667446E+06  0.2383759E+01
  0.1287500E+01  0.3674192E+06 -0.1005670E+01  0.1294614E+05 -0.1029375E+01  0.8349785E+05  0.5662552E+00  0.1337279E+06  0.5216866E+00  0.1299460E+07  0.2344078E+01  0.5783710E+06  0.2446970E+01
  0.1335000E+01  0.3723637E+06 -0.9643154E+00  0.1313767E+05 -0.9894004E+00  0.7261081E+05  0.6076753E+00  0.1156092E+06  0.5376265E+00  0.1282359E+07  0.2359282E+01  0.5876224E+06  0.2512489E+01
  0.1382500E+01  0.3756745E+06 -0.9217342E+00  0.1327393E+05 -0.9481649E+00  0.6276110E+05  0.6503198E+00  0.9935647E+05  0.5482880E+00  0.1259997E+07  0.2378646E+01  0.5944889E+06  0.2580310E+01
  0.1430000E+01  0.3773642E+06 -0.8779835E+00  0.1335475E+05 -0.9056948E+00  0.5391294E+05  0.6941309E+00  0.8493031E+05  0.5522843E+00  0.1232540E+07  0.2401806E+01  0.5989854E+06  0.2650411E+01
  0.1477500E+01  0.3774577E+06 -0.8331282E+00  0.1338118E+05 -0.8620524E+00  0.4602097E+05  0.7390426E+00  0.7227615E+05  0.5480511E+00  0.1200268E+07  0.2428417E+01  0.6011402E+06  0.2722780E+01
  0.1525000E+01  0.3759917E+06 -0.7872435E+00  0.1335403E+05 -0.8172767E+00  0.3903214E+05  0.7849787E+00  0.6132583E+05  0.5339146E+00  0.1163556E+07  0.2458154E+01  0.6009942E+06  0.2797399E+01
  0.1572500E+01  0.3730132E+06 -0.7404165E+00  0.1327466E+05 -0.7714421E+00  0.3288777E+05  0.8318512E+00  0.5199844E+05  0.5083025E+00  0.1122848E+07  0.2490706E+01  0.5986026E+06  0.2874244E+01
  0.1620000E+01  0.3685783E+06 -0.6927472E+00  0.1314458E+05 -0.7246125E+00  0.2752519E+05  0.8795583E+00  0.4419874E+05  0.4700770E+00  0.1078642E+07  0.2525773E+01  0.5940282E+06  0.2953295E+01
  0.1667500E+01  0.3627513E+06 -0.6443516E+00  0.1296568E+05 -0.6768825E+00  0.2287944E+05  0.9279831E+00  0.3781435E+05  0.4190892E+00  0.1031470E+07  0.2563062E+01  0.5873426E+06  0.3034526E+01
  0.1715000E+01  0.3556040E+06 -0.5953643E+00  0.1273985E+05 -0.6283586E+00  0.1888479E+05  0.9769893E+00  0.3271131E+05  0.3568652E+00  0.9818849E+06  0.2602279E+01  0.5786203E+06  0.3117904E+01
  0.1762500E+01  0.3472148E+06 -0.5459417E+00  0.1246942E+05 -0.5791627E+00  0.1547604E+05  0.1026419E+01  0.2872691E+05  0.2869031E+00  0.9304414E+06  0.2643127E+01  0.5679467E+06 -0.3079788E+01
  0.1810000E+01  0.3376693E+06 -0.4962663E+00  0.1215660E+05 -0.5294361E+00  0.1258972E+05  0.1076088E+01  0.2567320E+05  0.2144926E+00  0.8776906E+06  0.2685297E+01  0.5554047E+06 -0.2992216E+01
  0.1857500E+01  0.3270587E+06 -0.4465504E+00  0.1180404E+05 -0.4793563E+00  0.1016495E+05  0.1125782E+01  0.2334689E+05  0.1455883E+00  0.8241652E+06  0.2728462E+01  0.5410845E+06 -0.2902610E+01
  0.1905000E+01  0.3154813E+06 -0.3970436E+00  0.1141437E+05 -0.4291493E+00  0.8144256E+04  0.1175250E+01  0.2154725E+05  0.8534808E-01  0.7703749E+06  0.2772269E+01  0.5250807E+06 -0.2811019E+01
  0.1952500E+01  0.3030417E+06 -0.3480399E+00  0.1099058E+05 -0.3790462E+00  0.6474079E+04  0.1224197E+01  0.2009759E+05  0.3704679E-01  0.7167999E+06  0.2816334E+01  0.5074868E+06 -0.2717499E+01
  0.2000000E+01  0.2898525E+06 -0.2998838E+00  0.1053577E+05 -0.3293719E+00  0.5105174E+04  0.1272275E+01  0.1885752E+05  0.1888316E-02  0.6638880E+06  0.2860227E+01  0.4884018E+06 -0.2622116E+01
Zone t="FKforce - beta =   3.000",I=    41,F=POINT
  0.1000000E+00  0.4967771E+04 -0.1567290E+01  0.2603495E+03 -0.1568287E+01  0.4855240E+06  0.3482151E-02  0.8092074E+06  0.3707799E-02  0.1618560E+07  0.3131454E+01  0.7403918E+04  0.1576505E+01
  0.1475000E+00  0.1074349E+05 -0.1563208E+01  0.5630421E+03 -0.1564235E+01  0.4797349E+06  0.7575845E-02  0.7995536E+06  0.8052684E-02  0.1599814E+07  0.3119407E+01  0.1601202E+05  0.1582515E+01
  0.1950000E+00  0.1862235E+05 -0.1557572E+01  0.9759616E+03 -0.1557990E+01  0.4718310E+06  0.1324081E-01  0.7863709E+06  0.1403989E-01  0.1574896E+07  0.3102521E+01  0.2775486E+05  0.1591298E+01
  0.2425000E+00  0.2849702E+05 -0.1550368E+01  0.1493482E+04 -0.1550967E+01  0.4619135E+06  0.2047695E-01  0.7698239E+06  0.2164413E-01  0.1544764E+07  0.3080618E+01  0.4247286E+05  0.1602445E+01
  0.2900000E+00  0.4023394E+05 -0.1541577E+01  0.2108609E+04 -0.1542363E+01  0.4501076E+06  0.2928406E-01  0.7501166E+06  0.3083268E-01  0.1510609E+07  0.3053515E+01  0.5996777E+05  0.1616145E+01
  0.3375000E+00  0.5367575E+05 -0.1531221E+01  0.2813110E+04 -0.1532363E+01  0.4365609E+06  0.3966183E-01  0.7274886E+06  0.4156433E-01  0.1473820E+07  0.3021070E+01  0.8000598E+05  0.1632193E+01
  0.3850000E+00  0.6864420E+05 -0.1519302E+01  0.3597661E+04 -0.1520743E+01  0.4214401E+06  0.5160962E-01  0.7022150E+06  0.5378837E-01  0.1435926E+07  0.2983227E+01  0.1023242E+06  0.1650705E+01
  0.4325000E+00  0.8494322E+05 -0.1505817E+01  0.4452084E+04 -0.1507599E+01  0.4049274E+06  0.6512667E-01  0.6745926E+06  0.6744470E-01  0.1398545E+07  0.2940091E+01  0.1266332E+06  0.1671643E+01
  0.4800000E+00  0.1023627E+06 -0.1490762E+01  0.5365260E+04 -0.1493001E+01  0.3872180E+06  0.8021164E-01  0.6449491E+06  0.8246096E-01  0.1363283E+07  0.2891994E+01  0.1526236E+06  0.1694983E+01
  0.5275000E+00  0.1206817E+06 -0.1474148E+01  0.6325763E+04 -0.1476831E+01  0.3685152E+06  0.9686286E-01  0.6136131E+06  0.9875269E-01  0.1331650E+07  0.2839565E+01  0.1799719E+06  0.1720782E+01
  0.5750000E+00  0.1396723E+06 -0.1455973E+01  0.7321742E+04 -0.1459192E+01  0.3490282E+06  0.1150779E+00  0.5809349E+06  0.1162203E+00  0.1304928E+07  0.2783769E+01  0.2083440E+06  0.1749017E+01
  0.6225000E+00  0.1591035E+06 -0.1436241E+01  0.8341108E+04 -0.1439962E+01  0.3289668E+06  0.1348538E+00  0.5472654E+06  0.1347484E+00  0.1284068E+07  0.2725899E+01  0.2374062E+06  0.1779667E+01
  0.6700000E+00  0.1787448E+06 -0.1414954E+01  0.9371891E+04 -0.1419306E+01  0.3085391E+06  0.1561867E+00  0.5129541E+06  0.1541990E+00  0.1269586E+07  0.2667506E+01  0.2668213E+06  0.1812742E+01
  0.7175000E+00  0.1983692E+06 -0.1392119E+01  0.1040236E+05 -0.1397080E+01  0.2879478E+06  0.1790714E+00  0.4783387E+06  0.1744167E+00  0.1261520E+07  0.2610274E+01  0.2962619E+06  0.1848235E+01
  0.7650000E+00  0.2177573E+06 -0.1367741E+01  0.1142109E+05 -0.1373367E+01  0.2673862E+06  0.2035020E+00  0.4437554E+06  0.1952138E+00  0.1259424E+07  0.2555854E+01  0.3254154E+06  0.1886152E+01
  0.8125000E+00  0.2366994E+06 -0.1341827E+01  0.1241717E+05 -0.1348146E+01  0.2470365E+06  0.2294708E+00  0.4095099E+06  0.2163755E+00  0.1262441E+07  0.2505713E+01  0.3539807E+06  0.1926495E+01
  0.8600000E+00  0.2549985E+06 -0.1314389E+01  0.1338052E+05 -0.1321432E+01  0.2270668E+06  0.2569689E+00  0.3758988E+06  0.2376456E+00  0.1269383E+07  0.2461017E+01  0.3816790E+06  0.1969245E+01
  0.9075000E+00  0.2724727E+06 -0.1285433E+01  0.1430176E+05 -0.1293255E+01  0.2076291E+06  0.2859849E+00  0.3431880E+06  0.2587262E+00  0.1278879E+07  0.2422575E+01  0.4082522E+06  0.2014404E+01
  0.9550000E+00  0.2889563E+06 -0.1254975E+01  0.1517222E+05 -0.1263585E+01  0.1888579E+06  0.3165059E+00  0.3116180E+06  0.2792702E+00  0.1289483E+07  0.2390850E+01  0.4334671E+06  0.2061963E+01
  0.1002500E+01  0.3043020E+06 -0.1223030E+01  0.1598418E+05 -0.1232467E+01  0.1708686E+06  0.3485164E+00  0.2814002E+06  0.2988640E+00  0.1299785E+07  0.2365999E+01  0.4571202E+06  0.2111923E+01
  0.1050000E+01  0.3183810E+06 -0.1189615E+01  0.1673149E+05 -0.1199886E+01  0.1537572E+06  0.3819984E+00  0.2527186E+06  0.3170190E+00  0.1308494E+07  0.2347947E+01  0.4790340E+06  0.2164267E+01
  0.1097500E+01  0.3310841E+06 -0.1154751E+01  0.1740814E+05 -0.1165892E+01  0.1376004E+06  0.4169305E+00  0.2257216E+06  0.3331748E+00  0.1314490E+07  0.2336455E+01  0.4990561E+06  0.2218987E+01
  0.1145000E+01  0.3423216E+06 -0.1118463E+01  0.1800979E+05 -0.1130470E+01  0.1224551E+06  0.4532880E+00  0.2005307E+06  0.3466662E+00  0.1316845E+07  0.2331178E+01  0.5170627E+06  0.2276079E+01
  0.1192500E+01  0.3520232E+06 -0.1080778E+01  0.1853210E+05 -0.1093668E+01  0.1083597E+06  0.4910417E+00  0.1772370E+06  0.3567244E+00  0.1314849E+07  0.2331716E+01  0.5329606E+06  0.2335521E+01
  0.1240000E+01  0.3601362E+06 -0.1041730E+01  0.1897348E+05 -0.1055499E+01  0.9533453E+05  0.5301586E+00  0.1559027E+06  0.3624769E+00  0.1307995E+07  0.2337646E+01  0.5466744E+06  0.2397310E+01
  0.1287500E+01  0.3666273E+06 -0.1001357E+01  0.1933139E+05 -0.1016006E+01  0.8338352E+05  0.5706002E+00  0.1365619E+06  0.3629569E+00  0.1295975E+07  0.2348547E+01  0.5581605E+06  0.2461422E+01
  0.1335000E+01  0.3714788E+06 -0.9597023E+00  0.1960494E+05 -0.9752055E+00  0.7249560E+05  0.6123219E+00  0.1192240E+06  0.3571354E+00  0.1278657E+07  0.2364009E+01  0.5673892E+06  0.2527845E+01