VARIABLES="w (rad/s)"
"abs(F   1   1)" "angle(F   1   1)"
"abs(F   1   2)" "angle(F   1   2)"
"abs(F   1   3)" "angle(F   1   3)"
"abs(F   1   4)" "angle(F   1   4)"
"abs(F   1   5)" "angle(F   1   5)"
"abs(F   1   6)" "angle(F   1   6)"
Zone t="FKforce - beta =   0.000",I=    41,F=POINT
  0.1000000E+00  0.4974590E+04 -0.1567345E+01  0.3261724E+00  0.3139721E+01  0.4855240E+06  0.3397893E-02  0.8092069E+06  0.5057446E-02  0.1618562E+07  0.3131308E+01  0.8283485E+04  0.1576155E+01
  0.1475000E+00  0.1075824E+05 -0.1563391E+01  0.2509944E+00 -0.3129677E+01  0.4797352E+06  0.7392530E-02  0.7995583E+06  0.1100310E-01  0.1599823E+07  0.3119089E+01  0.1791416E+05  0.1581934E+01
  0.1950000E+00  0.1864794E+05 -0.1557892E+01  0.1690655E+00 -0.3027627E+01  0.4718320E+06  0.1292042E-01  0.7863864E+06  0.1923095E-01  0.1574920E+07  0.3101964E+01  0.3105199E+05  0.1590196E+01
  0.2425000E+00  0.2853627E+05 -0.1550866E+01  0.9431301E+00 -0.3101782E+01  0.4619159E+06  0.1998146E-01  0.7698611E+06  0.2974082E-01  0.1544819E+07  0.3079757E+01  0.4751786E+05  0.1600834E+01
  0.2900000E+00  0.4028959E+05 -0.1542279E+01  0.2251827E+01 -0.3101304E+01  0.4501124E+06  0.2857550E-01  0.7501886E+06  0.4253310E-01  0.1510725E+07  0.3052287E+01  0.6709004E+05  0.1613798E+01
  0.3375000E+00  0.5375047E+05 -0.1532170E+01  0.3899525E+01 -0.3086251E+01  0.4365693E+06  0.3870219E-01  0.7276182E+06  0.5760744E-01  0.1474025E+07  0.3019413E+01  0.8950652E+05  0.1629089E+01
  0.3850000E+00  0.6874065E+05 -0.1520542E+01  0.6671201E+01 -0.3070390E+01  0.4214538E+06  0.5036100E-01  0.7024248E+06  0.7496407E-01  0.1436269E+07  0.2981085E+01  0.1144714E+06  0.1646616E+01
  0.4325000E+00  0.8506432E+05 -0.1507375E+01  0.9809503E+01 -0.3045926E+01  0.4049482E+06  0.6355117E-01  0.6749174E+06  0.9460286E-01  0.1399069E+07  0.2937414E+01  0.1416597E+06  0.1666483E+01
  0.4800000E+00  0.1025114E+06 -0.1492686E+01  0.1497554E+02 -0.3027356E+01  0.3872483E+06  0.7827142E-01  0.6454175E+06  0.1165242E+00  0.1364052E+07  0.2888746E+01  0.1707236E+06  0.1688660E+01
  0.5275000E+00  0.1208614E+06 -0.1476471E+01  0.2114668E+02 -0.3000821E+01  0.3685573E+06  0.9452026E-01  0.6142662E+06  0.1407279E+00  0.1332718E+07  0.2835720E+01  0.2012976E+06  0.1713139E+01
  0.5750000E+00  0.1398870E+06 -0.1458732E+01  0.2894422E+02 -0.2973471E+01  0.3490845E+06  0.1122954E+00  0.5818102E+06  0.1672136E+00  0.1306355E+07  0.2779317E+01  0.2330061E+06  0.1739929E+01
  0.6225000E+00  0.1593579E+06 -0.1439471E+01  0.3896263E+02 -0.2946001E+01  0.3290396E+06  0.1315941E+00  0.5483998E+06  0.1959817E+00  0.1285904E+07  0.2720844E+01  0.2654683E+06  0.1769026E+01
  0.6700000E+00  0.1790443E+06 -0.1418696E+01  0.5025263E+02 -0.2912310E+01  0.3086309E+06  0.1524126E+00  0.5143807E+06  0.2270330E+00  0.1271877E+07  0.2661863E+01  0.2983076E+06  0.1800436E+01
  0.7175000E+00  0.1987207E+06 -0.1396408E+01  0.6380865E+02 -0.2879282E+01  0.2880604E+06  0.1747463E+00  0.4800890E+06  0.2603673E+00  0.1264297E+07  0.2604063E+01  0.3311502E+06  0.1834147E+01
  0.7650000E+00  0.2181686E+06 -0.1372614E+01  0.7936105E+02 -0.2843636E+01  0.2675214E+06  0.1985896E+00  0.4458469E+06  0.2959842E+00  0.1262713E+07  0.2549097E+01  0.3636382E+06  0.1870170E+01
  0.8125000E+00  0.2371797E+06 -0.1347318E+01  0.9739217E+02 -0.2803990E+01  0.2471956E+06  0.2239351E+00  0.4119545E+06  0.3338850E+00  0.1266248E+07  0.2498425E+01  0.3954288E+06  0.1908498E+01
  0.8600000E+00  0.2555590E+06 -0.1320531E+01  0.1173513E+03 -0.2764599E+01  0.2272505E+06  0.2507747E+00  0.3786913E+06  0.3740698E+00  0.1273717E+07  0.2453205E+01  0.4262049E+06  0.1949136E+01
  0.9075000E+00  0.2731259E+06 -0.1292264E+01  0.1393129E+03 -0.2723056E+01  0.2078377E+06  0.2790978E+00  0.3463107E+06  0.4165360E+00  0.1283735E+07  0.2414231E+01  0.4556691E+06  0.1992077E+01
  0.9550000E+00  0.2897164E+06 -0.1262528E+01  0.1632610E+03 -0.2676974E+01  0.1890906E+06  0.3088924E+00  0.3150334E+06  0.4612871E+00  0.1294862E+07  0.2381957E+01  0.4835562E+06  0.2037328E+01
  0.1002500E+01  0.3051849E+06 -0.1231335E+01  0.1891158E+03 -0.2628844E+01  0.1711246E+06  0.3401440E+00  0.2850502E+06  0.5083256E+00  0.1305690E+07  0.2356532E+01  0.5096302E+06  0.2084886E+01
  0.1050000E+01  0.3194048E+06 -0.1198705E+01  0.2163641E+03 -0.2579716E+01  0.1540350E+06  0.3728356E+00  0.2565216E+06  0.5576492E+00  0.1314931E+07  0.2337872E+01  0.5336827E+06  0.2134751E+01
  0.1097500E+01  0.3322681E+06 -0.1164655E+01  0.2450853E+03 -0.2527581E+01  0.1378975E+06  0.4069475E+00  0.2295732E+06  0.6092560E+00  0.1321468E+07  0.2325735E+01  0.5555410E+06  0.2186919E+01
  0.1145000E+01  0.3436868E+06 -0.1129209E+01  0.2749120E+03 -0.2473652E+01  0.1227689E+06  0.4424567E+00  0.2043005E+06  0.6631504E+00  0.1324384E+07  0.2319773E+01  0.5750614E+06  0.2241395E+01
  0.1192500E+01  0.3535915E+06 -0.1092393E+01  0.3053226E+03 -0.2416736E+01  0.1086870E+06  0.4793364E+00  0.1807669E+06  0.7193367E+00  0.1322967E+07  0.2319588E+01  0.5921325E+06  0.2298176E+01
  0.1240000E+01  0.3619316E+06 -0.1054238E+01  0.3362816E+03 -0.2358061E+01  0.9567204E+05  0.5175554E+00  0.1590068E+06  0.7778067E+00  0.1316717E+07  0.2324758E+01  0.6066731E+06  0.2357257E+01
  0.1287500E+01  0.3686740E+06 -0.1014778E+01  0.3669565E+03 -0.2296946E+01  0.8372751E+05  0.5570785E+00  0.1390272E+06  0.8385640E+00  0.1305326E+07  0.2334862E+01  0.6186266E+06  0.2418643E+01
  0.1335000E+01  0.3738014E+06 -0.9740548E+00  0.3974727E+03 -0.2233059E+01  0.7284228E+05  0.5978642E+00  0.1208108E+06  0.9016154E+00  0.1288667E+07  0.2349497E+01  0.6279660E+06  0.2482333E+01
  0.1382500E+01  0.3773128E+06 -0.9321141E+00  0.4269062E+03 -0.2167348E+01  0.6299191E+05  0.6398655E+00  0.1043192E+06  0.9669588E+00  0.1266767E+07  0.2368276E+01  0.6346877E+06  0.2548321E+01
  0.1430000E+01  0.3792201E+06 -0.8890097E+00  0.4550338E+03 -0.2099368E+01  0.5414063E+05  0.6830279E+00  0.8949271E+05  0.1034595E+01  0.1239788E+07  0.2390837E+01  0.6388048E+06  0.2616611E+01
  0.1477500E+01  0.3795479E+06 -0.8448032E+00  0.4816270E+03 -0.2028886E+01  0.4624328E+05  0.7272885E+00  0.7625972E+05  0.1104524E+01  0.1208009E+07  0.2416841E+01  0.6403536E+06  0.2687198E+01
  0.1525000E+01  0.3783325E+06 -0.7995660E+00  0.5055657E+03 -0.1956310E+01  0.3924697E+05  0.7725759E+00  0.6453199E+05  0.1176744E+01  0.1171799E+07  0.2445966E+01  0.6393844E+06  0.2760085E+01
  0.1572500E+01  0.3756193E+06 -0.7533796E+00  0.5270060E+03 -0.1881232E+01  0.3309328E+05  0.8188071E+00  0.5421540E+05  0.1251263E+01  0.1131598E+07  0.2477908E+01  0.6359641E+06  0.2835264E+01
  0.1620000E+01  0.3714630E+06 -0.7063382E+00  0.5452617E+03 -0.1803989E+01  0.2771982E+05  0.8658869E+00  0.4520695E+05  0.1328085E+01  0.1087898E+07  0.2512372E+01  0.6301672E+06  0.2912736E+01
  0.1667500E+01  0.3659262E+06 -0.6585507E+00  0.5599139E+03 -0.1724363E+01  0.2306194E+05  0.9137046E+00  0.3740054E+05  0.1407204E+01  0.1041224E+07  0.2549076E+01  0.6220802E+06  0.2992501E+01
  0.1715000E+01  0.3590781E+06 -0.6101432E+00  0.5705355E+03 -0.1642525E+01  0.1905421E+05  0.9621334E+00  0.3068793E+05  0.1488626E+01  0.9921187E+06  0.2587732E+01  0.6117986E+06  0.3074553E+01
  0.1762500E+01  0.3509946E+06 -0.5612622E+00  0.5765949E+03 -0.1558292E+01  0.1563178E+05  0.1011025E+01  0.2496288E+05  0.1572345E+01  0.9411316E+06  0.2628055E+01  0.5994219E+06 -0.3124294E+01
  0.1810000E+01  0.3417578E+06 -0.5120772E+00  0.5778692E+03 -0.1471799E+01  0.1273144E+05  0.1060209E+01  0.2012028E+05  0.1658385E+01  0.8888046E+06  0.2669746E+01  0.5850599E+06 -0.3037675E+01
  0.1857500E+01  0.3314553E+06 -0.4627867E+00  0.5739596E+03 -0.1383048E+01  0.1029262E+05  0.1109484E+01  0.1606027E+05  0.1746717E+01  0.8356613E+06  0.2712495E+01  0.5688217E+06 -0.2948778E+01
  0.1905000E+01  0.3201808E+06 -0.4136224E+00  0.5645512E+03 -0.1291958E+01  0.8258096E+04  0.1158619E+01  0.1268757E+05  0.1837372E+01  0.7822052E+06  0.2755970E+01  0.5508263E+06 -0.2857609E+01
  0.1952500E+01  0.3080344E+06 -0.3648557E+00  0.5494269E+03 -0.1198480E+01  0.6574526E+04  0.1207338E+01  0.9913177E+04  0.1930345E+01  0.7289056E+06  0.2799803E+01  0.5311931E+06 -0.2764171E+01
  0.2000000E+01  0.2951228E+06 -0.3168061E+00  0.5283471E+03 -0.1102870E+01  0.5192864E+04  0.1255323E+01  0.7655224E+04  0.2025656E+01  0.6762042E+06  0.2843596E+01  0.5100480E+06 -0.2668474E+01
