VARIABLES="w (rad/s)"
"A   1   1" "B   1   1"
"A   1   2" "B   1   2"
"A   1   3" "B   1   3"
"A   1   4" "B   1   4"
"A   1   5" "B   1   5"
"A   1   6" "B   1   6"
Zone t="Motion of body    1 in DoF   1",I=    41,F=POINT
  0.1000000E+00  0.6639392E+06  0.3868032E-01 -0.3174083E+06 -0.1963620E-01  0.1261880E+04  0.7055824E+01 -0.1449537E+07  0.1166520E+02 -0.3003086E+07 -0.2369697E+02 -0.1663282E+07 -0.1188021E+00
  0.1475000E+00  0.6687356E+06  0.5851197E+00 -0.3199157E+06 -0.2974095E+00  0.1299435E+04  0.2207991E+02 -0.1460397E+07  0.3538680E+02 -0.3023536E+07 -0.7625181E+02 -0.1677370E+07 -0.1791982E+01
  0.1950000E+00  0.6730294E+06  0.4086320E+01 -0.3223065E+06 -0.2080616E+01  0.1324539E+04  0.4925473E+02 -0.1467546E+07  0.7226023E+02 -0.3036248E+07 -0.1826246E+03 -0.1689543E+07 -0.1254137E+02
  0.2425000E+00  0.6764907E+06  0.1851405E+02 -0.3242522E+06 -0.9451150E+01  0.1321238E+04  0.9053799E+02 -0.1474848E+07  0.1064585E+03 -0.3048794E+07 -0.3850303E+03 -0.1700256E+07 -0.5690837E+02
  0.2900000E+00  0.6819109E+06  0.6372946E+02 -0.3273144E+06 -0.3266774E+02  0.1300401E+04  0.1464513E+03 -0.1484977E+07  0.9134963E+02 -0.3066010E+07 -0.7734002E+03 -0.1716664E+07 -0.1963644E+03
  0.3375000E+00  0.6873752E+06  0.1807590E+03 -0.3304200E+06 -0.9311531E+02  0.1248990E+04  0.2159572E+03 -0.1496694E+07 -0.7306787E+02 -0.3085748E+07 -0.1525451E+04 -0.1733745E+07 -0.5586167E+03
  0.3850000E+00  0.6940919E+06  0.4448253E+03 -0.3342609E+06 -0.2305828E+03  0.1155605E+04  0.2965831E+03 -0.1511271E+07 -0.5714033E+03 -0.3109786E+07 -0.2961595E+04 -0.1755026E+07 -0.1379929E+04
  0.4325000E+00  0.7017321E+06  0.9811634E+03 -0.3386461E+06 -0.5123142E+03  0.1037375E+04  0.3846360E+03 -0.1528244E+07 -0.1711277E+04 -0.3137912E+07 -0.5611625E+04 -0.1779654E+07 -0.3057401E+04
  0.4800000E+00  0.7115233E+06  0.1986183E+04 -0.3442860E+06 -0.1046342E+04  0.8891136E+03  0.4745592E+03 -0.1550229E+07 -0.3978091E+04 -0.3173897E+07 -0.1029517E+05 -0.1811033E+07 -0.6223364E+04
  0.5275000E+00  0.7233213E+06  0.3749912E+04 -0.3511388E+06 -0.1996243E+04  0.7332166E+03  0.5607007E+03 -0.1575696E+07 -0.8085033E+04 -0.3215782E+07 -0.1820743E+05 -0.1848778E+07 -0.1182524E+05
  0.5750000E+00  0.7360392E+06  0.6675886E+04 -0.3586096E+06 -0.3595396E+04  0.5313468E+03  0.6364609E+03 -0.1604242E+07 -0.1503937E+05 -0.3261486E+07 -0.3099975E+05 -0.1890365E+07 -0.2120571E+05
  0.6225000E+00  0.7511245E+06  0.1132492E+05 -0.3675945E+06 -0.6181550E+04  0.3298336E+03  0.6935455E+03 -0.1637591E+07 -0.2624575E+05 -0.3314646E+07 -0.5090398E+05 -0.1939587E+07 -0.3627532E+05
  0.6700000E+00  0.7680598E+06  0.1842947E+05 -0.3777649E+06 -0.1021072E+05  0.1197783E+03  0.7259824E+03 -0.1675346E+07 -0.4356994E+05 -0.3374568E+07 -0.8081222E+05 -0.1995376E+07 -0.5958807E+05
  0.7175000E+00  0.7864319E+06  0.2892059E+05 -0.3890091E+06 -0.1628668E+05 -0.8968699E+02  0.7255301E+03 -0.1716249E+07 -0.6939602E+05 -0.3437862E+07 -0.1242707E+06 -0.2056665E+07 -0.9447872E+05
  0.7650000E+00  0.8059842E+06  0.4395110E+05 -0.4011275E+06 -0.2518734E+05 -0.2969176E+03  0.6830909E+03 -0.1759393E+07 -0.1067207E+06 -0.3504349E+07 -0.1855845E+06 -0.2122088E+07 -0.1451817E+06
  0.8125000E+00  0.8265921E+06  0.6491563E+05 -0.4140992E+06 -0.3790177E+05 -0.4627188E+03  0.5986824E+03 -0.1803324E+07 -0.1591298E+06 -0.3571164E+07 -0.2696992E+06 -0.2191130E+07 -0.2169843E+06
  0.8600000E+00  0.8453743E+06  0.9320024E+05 -0.4260550E+06 -0.5543227E+05 -0.6339728E+03  0.4569311E+03 -0.1842543E+07 -0.2302593E+06 -0.3629406E+07 -0.3813984E+06 -0.2254584E+07 -0.3152112E+06
  0.9075000E+00  0.8625174E+06  0.1304360E+06 -0.4370065E+06 -0.7902612E+05 -0.7466909E+03  0.2635959E+03 -0.1873568E+07 -0.3238767E+06 -0.3675117E+07 -0.5254841E+06 -0.2311004E+07 -0.4463206E+06
  0.9550000E+00  0.8744748E+06  0.1776837E+06 -0.4444152E+06 -0.1094918E+06 -0.8117821E+03  0.1728965E+02 -0.1890041E+07 -0.4424708E+06 -0.3700266E+07 -0.7050339E+06 -0.2347839E+07 -0.6144844E+06
  0.1002500E+01  0.8796648E+06  0.2356310E+06 -0.4468968E+06 -0.1473860E+06 -0.8216732E+03 -0.2787831E+03 -0.1884920E+07 -0.5864711E+06 -0.3696352E+07 -0.9203872E+06 -0.2357584E+07 -0.8224099E+06
  0.1050000E+01  0.8763361E+06  0.3040211E+06 -0.4428941E+06 -0.1924977E+06 -0.7520201E+03 -0.5952068E+03 -0.1852276E+07 -0.7529011E+06 -0.3655958E+07 -0.1167710E+07 -0.2331274E+07 -0.1068368E+07
  0.1097500E+01  0.8595169E+06  0.3797954E+06 -0.4288952E+06 -0.2422539E+06 -0.6093837E+03 -0.9163897E+03 -0.1783164E+07 -0.9312594E+06 -0.3566878E+07 -0.1434292E+07 -0.2252032E+07 -0.1339004E+07
  0.1145000E+01  0.8303927E+06  0.4599325E+06 -0.4054593E+06 -0.2940746E+06 -0.4051642E+03 -0.1235620E+04 -0.1680002E+07 -0.1110239E+07 -0.3433683E+07 -0.1706655E+07 -0.2121852E+07 -0.1620202E+07
  0.1192500E+01  0.7879251E+06  0.5382792E+06 -0.3721812E+06 -0.3427279E+06 -0.1394171E+03 -0.1483420E+04 -0.1542052E+07 -0.1268407E+07 -0.3252986E+07 -0.1959393E+07 -0.1938306E+07 -0.1884319E+07
  0.1240000E+01  0.7355491E+06  0.6101435E+06 -0.3318736E+06 -0.3844056E+06  0.1533535E+03 -0.1633932E+04 -0.1383862E+07 -0.1393935E+07 -0.3043076E+07 -0.2177547E+07 -0.1716518E+07 -0.2110764E+07
  0.1287500E+01  0.6748099E+06  0.6682821E+06 -0.2868477E+06 -0.4133227E+06  0.4355005E+03 -0.1726963E+04 -0.1214754E+07 -0.1466803E+07 -0.2810463E+07 -0.2335074E+07 -0.1468716E+07 -0.2269023E+07
  0.1335000E+01  0.6122129E+06  0.7124064E+06 -0.2418617E+06 -0.4295039E+06  0.6996660E+03 -0.1708302E+04 -0.1053271E+07 -0.1491731E+07 -0.2582027E+07 -0.2437226E+07 -0.1220165E+07 -0.2357735E+07
  0.1382500E+01  0.5507590E+06  0.7402121E+06 -0.1999290E+06 -0.4318340E+06  0.9216906E+03 -0.1605170E+04 -0.9084232E+06 -0.1464714E+07 -0.2365074E+07 -0.2474640E+07 -0.9862675E+06 -0.2369703E+07
  0.1430000E+01  0.4938053E+06  0.7541408E+06 -0.1635756E+06 -0.4230661E+06  0.1084874E+04 -0.1430046E+04 -0.7890669E+06 -0.1401092E+07 -0.2173031E+07 -0.2462986E+07 -0.7814411E+06 -0.2317960E+07
  0.1477500E+01  0.4421177E+06  0.7525681E+06 -0.1339480E+06 -0.4032895E+06  0.1201515E+04 -0.1247582E+04 -0.6974271E+06 -0.1301516E+07 -0.2006028E+07 -0.2396017E+07 -0.6131215E+06 -0.2202538E+07
  0.1525000E+01  0.3976121E+06  0.7428275E+06 -0.1113008E+06 -0.3783135E+06  0.1269790E+04 -0.1026408E+04 -0.6328788E+06 -0.1191222E+07 -0.1871187E+07 -0.2308510E+07 -0.4839786E+06 -0.2053598E+07
  0.1572500E+01  0.3594594E+06  0.7223603E+06 -0.9548868E+05 -0.3482264E+06  0.1295442E+04 -0.8024872E+03 -0.5931919E+06 -0.1065514E+07 -0.1761691E+07 -0.2183816E+07 -0.3940163E+06 -0.1871743E+07
  0.1620000E+01  0.3282120E+06  0.6976749E+06 -0.8546703E+05 -0.3180528E+06  0.1288890E+04 -0.5982402E+03 -0.5732576E+06 -0.9453458E+06 -0.1678594E+07 -0.2050612E+07 -0.3391291E+06 -0.1683798E+07
  0.1667500E+01  0.3024176E+06  0.6679444E+06 -0.8023398E+05 -0.2879230E+06  0.1253212E+04 -0.4090309E+03 -0.5694128E+06 -0.8320576E+06 -0.1617834E+07 -0.1910660E+07 -0.3148968E+06 -0.1496218E+07
  0.1715000E+01  0.2820102E+06  0.6324595E+06 -0.7900904E+05 -0.2587638E+06  0.1211751E+04 -0.2609979E+03 -0.5778539E+06 -0.7241984E+06 -0.1575585E+07 -0.1753915E+07 -0.3172045E+06 -0.1315813E+07
  0.1762500E+01  0.2665211E+06  0.5969718E+06 -0.8018877E+05 -0.2335295E+06  0.1152521E+04 -0.1317828E+03 -0.5926035E+06 -0.6348934E+06 -0.1550128E+07 -0.1609718E+07 -0.3358188E+06 -0.1160761E+07
  0.1810000E+01  0.2555067E+06  0.5578588E+06 -0.8338365E+05 -0.2104748E+06  0.1092979E+04 -0.3719750E+02 -0.6133600E+06 -0.5524898E+06 -0.1539347E+07 -0.1454947E+07 -0.3668702E+06 -0.1024436E+07
  0.1857500E+01  0.2483835E+06  0.5204182E+06 -0.8734059E+05 -0.1913407E+06  0.1036260E+04  0.3146094E+02 -0.6350300E+06 -0.4851036E+06 -0.1539849E+07 -0.1313247E+07 -0.4022082E+06 -0.9158033E+06
  0.1905000E+01  0.2446864E+06  0.4837841E+06 -0.9179923E+05 -0.1750790E+06  0.9813127E+03  0.7498856E+02 -0.6573080E+06 -0.4296638E+06 -0.1550225E+07 -0.1183229E+07 -0.4387836E+06 -0.8312474E+06
  0.1952500E+01  0.2439729E+06  0.4464860E+06 -0.9654480E+05 -0.1602362E+06  0.9381362E+03  0.9832507E+02 -0.6799604E+06 -0.3784941E+06 -0.1568970E+07 -0.1052703E+07 -0.4739791E+06 -0.7611085E+06
  0.2000000E+01  0.2452376E+06  0.4125269E+06 -0.1010531E+06 -0.1479629E+06  0.8960897E+03  0.1093430E+03 -0.7008345E+06 -0.3375956E+06 -0.1591467E+07 -0.9405109E+06 -0.5047312E+06 -0.7081674E+06
Zone t="Motion of body    1 in DoF   2",I=    41,F=POINT
  0.1000000E+00 -0.3176652E+06 -0.1945761E-01  0.6618331E+06  0.3804035E-01 -0.1747838E+03 -0.4634397E+01  0.2983576E+07 -0.7550563E+01  0.1453754E+07  0.1554175E+02  0.3227992E+07  0.1701175E+00
  0.1475000E+00 -0.3201743E+06 -0.2979951E+00  0.6666194E+06  0.5805122E+00 -0.2003027E+03 -0.1453037E+02  0.3003823E+07 -0.2159629E+02  0.1464770E+07  0.4985120E+02  0.3250369E+07  0.2595740E+01
  0.1950000E+00 -0.3225661E+06 -0.2085464E+01  0.6709042E+06  0.4057944E+01 -0.2126356E+03 -0.3249069E+02  0.3016386E+07 -0.3587991E+02  0.1472013E+07  0.1181579E+03  0.3271571E+07  0.1815870E+02
  0.2425000E+00 -0.3245138E+06 -0.9478727E+01  0.6743562E+06  0.1839511E+02 -0.2103926E+03 -0.5989468E+02  0.3028898E+07 -0.1726501E+02  0.1479311E+07  0.2442381E+03  0.3287841E+07  0.8234408E+02
  0.2900000E+00 -0.3275786E+06 -0.3276379E+02  0.6797628E+06  0.6334046E+02 -0.1934367E+03 -0.9720065E+02  0.3046142E+07  0.1210503E+03  0.1489367E+07  0.4772158E+03  0.3313768E+07  0.2837354E+03
  0.3375000E+00 -0.3306879E+06 -0.9340124E+02  0.6852112E+06  0.1797014E+03 -0.1566094E+03 -0.1437960E+03  0.3066035E+07  0.5600922E+03  0.1500892E+07  0.9137578E+03  0.3339450E+07  0.8056208E+03
  0.3850000E+00 -0.3345332E+06 -0.2312787E+03  0.6919062E+06  0.4422972E+03 -0.8815918E+02 -0.1980866E+03  0.3090389E+07  0.1629092E+04  0.1515112E+07  0.1729545E+04  0.3370842E+07  0.1984702E+04
  0.4325000E+00 -0.3389236E+06 -0.5138236E+03  0.6995229E+06  0.9757359E+03 -0.3826020E+01 -0.2576039E+03  0.3118930E+07  0.3870879E+04  0.1531640E+07  0.3218751E+04  0.3406214E+07  0.4383193E+04
  0.4800000E+00 -0.3445702E+06 -0.1049338E+04  0.7092829E+06  0.1975497E+04  0.1066421E+03 -0.3182633E+03  0.3155431E+07  0.8125636E+04  0.1553049E+07  0.5845310E+04  0.3451822E+07  0.8886602E+04
  0.5275000E+00 -0.3514294E+06 -0.2001772E+04  0.7210474E+06  0.3730223E+04  0.2224324E+03 -0.3759761E+03  0.3197866E+07  0.1560728E+05  0.1577906E+07  0.1030137E+05  0.3507147E+07  0.1680795E+05
  0.5750000E+00 -0.3589083E+06 -0.3604960E+04  0.7337269E+06  0.6641725E+04  0.3749104E+03 -0.4256078E+03  0.3244296E+07  0.2798885E+05  0.1605661E+07  0.1756849E+05  0.3566293E+07  0.2998060E+05
  0.6225000E+00 -0.3679021E+06 -0.6197214E+04  0.7487682E+06  0.1126851E+05  0.5308179E+03 -0.4602130E+03  0.3298180E+07  0.4752995E+05  0.1638204E+07  0.2901750E+05  0.3637180E+07  0.5097473E+05
  0.6700000E+00 -0.3780792E+06 -0.1023510E+05  0.7656601E+06  0.1834026E+05  0.6895521E+03 -0.4749769E+03  0.3358854E+07  0.7713723E+05  0.1675128E+07  0.4649133E+05  0.3716678E+07  0.8316447E+05
  0.7175000E+00 -0.3893312E+06 -0.1632307E+05  0.7839851E+06  0.2878474E+05  0.8571759E+03 -0.4623083E+03  0.3422897E+07  0.1203807E+06  0.1715172E+07  0.7233910E+05  0.3803204E+07  0.1308713E+06
  0.7650000E+00 -0.4014538E+06 -0.2523948E+05  0.8034972E+06  0.4375159E+05  0.1018057E+04 -0.4139652E+03  0.3490148E+07  0.1815944E+06  0.1757476E+07  0.1095188E+06  0.3895890E+07  0.1994957E+06
  0.8125000E+00 -0.4144261E+06 -0.3797351E+05  0.8240713E+06  0.6463180E+05  0.1151399E+04 -0.3286940E+03  0.3557588E+07  0.2657104E+06  0.1800704E+07  0.1616139E+06  0.3994530E+07  0.2956488E+06
  0.8600000E+00 -0.4263804E+06 -0.5552793E+05  0.8428308E+06  0.9280890E+05  0.1286169E+04 -0.1937573E+03  0.3616514E+07  0.3775714E+06  0.1839203E+07  0.2321970E+06  0.4084599E+07  0.4259301E+06
  0.9075000E+00 -0.4373231E+06 -0.7914855E+05  0.8599718E+06  0.1299130E+06  0.1376946E+04 -0.1045363E+02  0.3662753E+07  0.5219563E+06  0.1869714E+07  0.3250443E+06  0.4168594E+07  0.5982641E+06
  0.9550000E+00 -0.4447182E+06 -0.1096432E+06  0.8719512E+06  0.1770067E+06  0.1420443E+04  0.2205585E+03  0.3688309E+07  0.7019536E+06  0.1885880E+07  0.4426455E+06  0.4228642E+07  0.8178249E+06
  0.1002500E+01 -0.4471779E+06 -0.1475653E+06  0.8771991E+06  0.2347837E+06  0.1416421E+04  0.4971595E+03  0.3684712E+07  0.9179240E+06  0.1880652E+07  0.5854239E+06  0.4257498E+07  0.1088155E+07
  0.1050000E+01 -0.4431488E+06 -0.1927013E+06  0.8739598E+06  0.3029950E+06  0.1338072E+04  0.7940683E+03  0.3644399E+07  0.1165923E+07  0.1848246E+07  0.7505301E+06  0.4247572E+07  0.1408683E+07
  0.1097500E+01 -0.4291201E+06 -0.2424758E+06  0.8572655E+06  0.3785994E+06  0.1192902E+04  0.1094767E+04  0.3555209E+07  0.1433246E+07  0.1779688E+07  0.9275296E+06  0.4173345E+07  0.1764687E+07
  0.1145000E+01 -0.4056527E+06 -0.2943062E+06  0.8282939E+06  0.4585872E+06  0.9903517E+03  0.1392396E+04  0.3421722E+07  0.1706419E+07  0.1677342E+07  0.1105127E+07  0.4041522E+07  0.2142346E+07
  0.1192500E+01 -0.3723455E+06 -0.3429593E+06  0.7859998E+06  0.5368300E+06  0.7235192E+03  0.1616637E+04  0.3240546E+07  0.1959849E+07  0.1540505E+07  0.1262204E+07  0.3847285E+07  0.2512520E+07
  0.1240000E+01 -0.3320140E+06 -0.3846293E+06  0.7337964E+06  0.6086318E+06  0.4422538E+03  0.1758015E+04  0.3030039E+07  0.2178424E+07  0.1383528E+07  0.1387017E+07  0.3606626E+07  0.2853298E+07
  0.1287500E+01 -0.2869707E+06 -0.4135329E+06  0.6732174E+06  0.6667596E+06  0.1642141E+03  0.1827801E+04  0.2796808E+07  0.2336300E+07  0.1215637E+07  0.1459454E+07  0.3326537E+07  0.3130122E+07
  0.1335000E+01 -0.2419720E+06 -0.4296978E+06  0.6107621E+06  0.7109177E+06 -0.9237374E+02  0.1792992E+04  0.2567756E+07  0.2438454E+07  0.1055297E+07  0.1484439E+07  0.3038025E+07  0.3343004E+07
  0.1382500E+01 -0.2000318E+06 -0.4320108E+06  0.5494232E+06  0.7387954E+06 -0.3068549E+03  0.1676040E+04  0.2350285E+07  0.2475664E+07  0.9114201E+06  0.1457834E+07  0.2755709E+07  0.3482021E+07
  0.1430000E+01 -0.1636742E+06 -0.4232266E+06  0.4925568E+06  0.7528125E+06 -0.4620230E+03  0.1495999E+04  0.2157893E+07  0.2463540E+07  0.7927744E+06  0.1394939E+07  0.2494561E+07  0.3559990E+07
  0.1477500E+01 -0.1340452E+06 -0.4034366E+06  0.4409293E+06  0.7513387E+06 -0.5710851E+03  0.1301142E+04  0.1990642E+07  0.2396108E+07  0.7016514E+06  0.1296149E+07  0.2256711E+07  0.3569184E+07
  0.1525000E+01 -0.1113960E+06 -0.3784470E+06  0.3964668E+06  0.7417044E+06 -0.6318812E+03  0.1067848E+04  0.1855706E+07  0.2307981E+07  0.6374014E+06  0.1186830E+07  0.2050393E+07  0.3545089E+07
  0.1572500E+01 -0.9558321E+05 -0.3483473E+06  0.3583411E+06  0.7213502E+06 -0.6507103E+03  0.8402135E+03  0.1746244E+07  0.2182720E+07  0.5978321E+06  0.1062072E+07  0.1870742E+07  0.3474792E+07
  0.1620000E+01 -0.8556222E+05 -0.3181618E+06  0.3271074E+06  0.6967719E+06 -0.6394580E+03  0.6330686E+03  0.1663281E+07  0.2049050E+07  0.5778816E+06  0.9427672E+06  0.1719413E+07  0.3389034E+07
  0.1667500E+01 -0.8032956E+05 -0.2880188E+06  0.3013179E+06  0.6671439E+06 -0.5978898E+03  0.4360800E+03  0.1602748E+07  0.1908672E+07  0.5738825E+06  0.8303082E+06  0.1588582E+07  0.3277878E+07
  0.1715000E+01 -0.7910610E+05 -0.2588484E+06  0.2809075E+06  0.6317529E+06 -0.5508600E+03  0.2815057E+03  0.1560720E+07  0.1751665E+07  0.5821508E+06  0.7231072E+06  0.1478138E+07  0.3135596E+07
  0.1762500E+01 -0.8028717E+05 -0.2336007E+06  0.2654091E+06  0.5963616E+06 -0.4870091E+03  0.1486082E+03  0.1535525E+07  0.1607305E+07  0.5966418E+06  0.6343682E+06  0.1387969E+07  0.2987584E+07
  0.1810000E+01 -0.8348503E+05 -0.2105332E+06  0.2543776E+06  0.5573457E+06 -0.4225801E+03  0.4943404E+02  0.1524960E+07  0.1452566E+07  0.6171421E+06  0.5523873E+06  0.1317764E+07  0.2813645E+07
  0.1857500E+01 -0.8744612E+05 -0.1913878E+06  0.2472338E+06  0.5199919E+06 -0.3619158E+03 -0.2244382E+02  0.1525643E+07  0.1310994E+07  0.6385700E+06  0.4853051E+06  0.1266512E+07  0.2639926E+07
  0.1905000E+01 -0.9190902E+05 -0.1751158E+06  0.2435120E+06  0.4834357E+06 -0.3028732E+03 -0.6898423E+02  0.1536170E+07  0.1181172E+07  0.6606060E+06  0.4300575E+06  0.1233634E+07  0.2460478E+07
  0.1952500E+01 -0.9665891E+05 -0.1602659E+06  0.2427729E+06  0.4462022E+06 -0.2549514E+03 -0.9581644E+02  0.1555001E+07  0.1050865E+07  0.6830636E+06  0.3790095E+06  0.1218472E+07  0.2270324E+07
  0.2000000E+01 -0.1011717E+06 -0.1479855E+06  0.2440103E+06  0.4123004E+06 -0.2094446E+03 -0.1088039E+03  0.1577574E+07  0.9389099E+06  0.7037471E+06  0.3381619E+06  0.1216449E+07  0.2092465E+07
Zone t="Motion of body    1 in DoF   3",I=    41,F=POINT
  0.1000000E+00 -0.3108079E+04  0.7788658E-02  0.2551397E+04 -0.6361485E-02  0.1365354E+06  0.1345288E+03  0.2467659E+06  0.2241645E+03 -0.4302585E+06 -0.4484949E+03  0.1339480E+05 -0.3467751E-01
  0.1475000E+00 -0.3129393E+04  0.4822063E-01  0.2568511E+04 -0.3886509E-01  0.1374115E+06  0.4187400E+03  0.2482961E+06  0.6975835E+03 -0.4330974E+06 -0.1396218E+04  0.1348387E+05 -0.2065506E+00
  0.1950000E+00 -0.3151908E+04  0.1586781E+00  0.2592246E+04 -0.1261768E+00  0.1379013E+06  0.9274089E+03  0.2491911E+06  0.1544573E+04 -0.4346557E+06 -0.3092845E+04  0.1359730E+05 -0.6683655E+00
  0.2425000E+00 -0.3171862E+04  0.3379898E+00  0.2609990E+04 -0.2589569E+00  0.1377340E+06  0.1689427E+04  0.2489677E+06  0.2813047E+04 -0.4340374E+06 -0.5635092E+04  0.1368822E+05 -0.1384674E+01
  0.2900000E+00 -0.3201953E+04  0.4528046E+00  0.2637126E+04 -0.3073273E+00  0.1374804E+06  0.2703806E+04  0.2486454E+06  0.4501563E+04 -0.4330848E+06 -0.9019604E+04  0.1382975E+05 -0.1716461E+01
  0.3375000E+00 -0.3240101E+04  0.9246826E-01  0.2672074E+04  0.1056061E+00  0.1366214E+06  0.3940669E+04  0.2473478E+06  0.6561620E+04 -0.4300779E+06 -0.1314555E+05  0.1400512E+05  0.2388306E+00
  0.3850000E+00 -0.3287628E+04 -0.1588547E+01  0.2715460E+04  0.1743820E+01  0.1350712E+06  0.5344538E+04  0.2449259E+06  0.8903821E+04 -0.4247355E+06 -0.1782475E+05  0.1422436E+05  0.8472290E+01
  0.4325000E+00 -0.3343990E+04 -0.6104370E+01  0.2766232E+04  0.5968536E+01  0.1330641E+06  0.6840531E+04  0.2417757E+06  0.1140906E+05 -0.4178302E+06 -0.2280142E+05  0.1448587E+05  0.2977173E+02
  0.4800000E+00 -0.3415090E+04 -0.1579095E+02  0.2830600E+04  0.1486420E+02  0.1308727E+06  0.8340443E+04  0.2383813E+06  0.1393936E+05 -0.4102418E+06 -0.2777159E+05  0.1481439E+05  0.7495349E+02
  0.5275000E+00 -0.3498476E+04 -0.3398221E+02  0.2906510E+04  0.3143149E+02  0.1287816E+06  0.9757359E+04  0.2352041E+06  0.1636258E+05 -0.4029350E+06 -0.3243130E+05  0.1519813E+05  0.1593258E+03
  0.5750000E+00 -0.3589485E+04 -0.6510452E+02  0.2989462E+04  0.5963025E+02  0.1258017E+06  0.1100898E+05  0.2305544E+06  0.1855881E+05 -0.3926516E+06 -0.3648702E+05  0.1562278E+05  0.3031035E+03
  0.6225000E+00 -0.3696751E+04 -0.1148543E+03  0.3087337E+04  0.1046108E+03  0.1233836E+06  0.1202107E+05  0.2269102E+06  0.2042550E+05 -0.3841663E+06 -0.3966779E+05  0.1612004E+05  0.5327180E+03
  0.6700000E+00 -0.3803812E+04 -0.1900861E+03  0.3184257E+04  0.1726300E+03  0.1207162E+06  0.1275215E+05  0.2228324E+06  0.2191903E+05 -0.3748656E+06 -0.4180705E+05  0.1661222E+05  0.8796372E+03
  0.7175000E+00 -0.3915104E+04 -0.2984787E+03  0.3286759E+04  0.2707050E+03  0.1185659E+06  0.1316132E+05  0.2196395E+06  0.2299888E+05 -0.3672685E+06 -0.4273815E+05  0.1713039E+05  0.1380205E+04
  0.7650000E+00 -0.4016823E+04 -0.4487254E+03  0.3380597E+04  0.4070012E+03  0.1162577E+06  0.1324046E+05  0.2161258E+06  0.2368176E+05 -0.3592063E+06 -0.4240148E+05  0.1760820E+05  0.2075110E+04
  0.8125000E+00 -0.4102101E+04 -0.6485231E+03  0.3459699E+04  0.5887405E+03  0.1149782E+06  0.1307612E+05  0.2142627E+06  0.2413422E+05 -0.3546483E+06 -0.4106192E+05  0.1800988E+05  0.3001439E+04
  0.8600000E+00 -0.4158766E+04 -0.9060212E+03  0.3513904E+04  0.8238011E+03  0.1130354E+06  0.1248778E+05  0.2111635E+06  0.2408572E+05 -0.3480188E+06 -0.3808541E+05  0.1828173E+05  0.4198164E+04
  0.9075000E+00 -0.4165593E+04 -0.1222774E+04  0.3524338E+04  0.1114426E+04  0.1120594E+06  0.1179657E+05  0.2094850E+06  0.2406054E+05 -0.3448325E+06 -0.3455835E+05  0.1832629E+05  0.5675681E+04
  0.9550000E+00 -0.4115328E+04 -0.1597598E+04  0.3478051E+04  0.1459197E+04  0.1113766E+06  0.1088221E+05  0.2080806E+06  0.2385230E+05 -0.3428397E+06 -0.3008367E+05  0.1809182E+05  0.7427996E+04
  0.1002500E+01 -0.3980094E+04 -0.2019053E+04  0.3357734E+04  0.1848834E+04  0.1106037E+06  0.9726937E+04  0.2062143E+06  0.2337628E+05 -0.3408964E+06 -0.2466659E+05  0.1747233E+05  0.9404923E+04
  0.1050000E+01 -0.3761072E+04 -0.2465110E+04  0.3155508E+04  0.2262360E+04  0.1105417E+06  0.8732610E+04  0.2052216E+06  0.2319949E+05 -0.3416502E+06 -0.1975686E+05  0.1643931E+05  0.1149962E+05
  0.1097500E+01 -0.3446938E+04 -0.2896485E+04  0.2863536E+04  0.2661870E+04  0.1106589E+06  0.7657399E+04  0.2042290E+06  0.2279232E+05 -0.3433125E+06 -0.1467683E+05  0.1496347E+05  0.1352753E+05
  0.1145000E+01 -0.3043788E+04 -0.3275370E+04  0.2490959E+04  0.3014641E+04  0.1105777E+06  0.6324236E+04  0.2026213E+06  0.2172226E+05 -0.3446269E+06 -0.8992146E+04  0.1306610E+05  0.1531087E+05
  0.1192500E+01 -0.2586125E+04 -0.3547797E+04  0.2061774E+04  0.3264040E+04  0.1108867E+06  0.5327325E+04  0.2014998E+06  0.2075660E+05 -0.3474040E+06 -0.4902846E+04  0.1089327E+05  0.1657335E+05
  0.1240000E+01 -0.2117288E+04 -0.3683386E+04  0.1628623E+04  0.3388996E+04  0.1115731E+06  0.4870435E+04  0.2010649E+06  0.2020551E+05 -0.3513999E+06 -0.3152698E+04  0.8686017E+04  0.1719608E+05
  0.1287500E+01 -0.1668230E+04 -0.3690628E+04  0.1207621E+04  0.3385974E+04  0.1118799E+06  0.3614302E+04  0.2000912E+06  0.1785756E+05 -0.3540069E+06  0.8076553E+03  0.6558557E+04  0.1718398E+05
  0.1335000E+01 -0.1266391E+04 -0.3533773E+04  0.8358688E+03  0.3231991E+04  0.1122762E+06  0.2663797E+04  0.1995090E+06  0.1550059E+05 -0.3566713E+06  0.3180651E+04  0.4675272E+04  0.1640439E+05
  0.1382500E+01 -0.9505823E+03 -0.3258368E+04  0.5461821E+03  0.2966391E+04  0.1127794E+06  0.2144478E+04  0.1994331E+06  0.1346379E+05 -0.3593511E+06  0.3685026E+04  0.3203763E+04  0.1505250E+05
  0.1430000E+01 -0.7258170E+03 -0.2903823E+04  0.3429020E+03  0.2630142E+04  0.1133247E+06  0.2125799E+04  0.1997749E+06  0.1208180E+05 -0.3618005E+06  0.2308257E+04  0.2170209E+04  0.1334159E+05
  0.1477500E+01 -0.5827347E+03 -0.2533944E+04  0.2147440E+03  0.2276630E+04  0.1138048E+06  0.1376104E+04  0.2002642E+06  0.9491555E+04 -0.3637567E+06  0.3405957E+04  0.1523873E+04  0.1155100E+05
  0.1525000E+01 -0.5198451E+03 -0.2095512E+04  0.1645829E+03  0.1864025E+04  0.1142187E+06  0.8205550E+03  0.2009156E+06  0.7120419E+04 -0.3652080E+06  0.3721644E+04  0.1268393E+04  0.9464811E+04
  0.1572500E+01 -0.5259843E+03 -0.1677021E+04  0.1784890E+03  0.1480814E+04  0.1146018E+06  0.5534614E+03  0.2017330E+06  0.5337732E+04 -0.3663196E+06  0.3148987E+04  0.1336168E+04  0.7502400E+04
  0.1620000E+01 -0.5689770E+03 -0.1309753E+04  0.2244886E+03  0.1141993E+04  0.1149296E+06  0.5580164E+03  0.2025542E+06  0.4162570E+04 -0.3671359E+06  0.1841443E+04  0.1571788E+04  0.5780359E+04
  0.1667500E+01 -0.6598060E+03 -0.9612920E+03  0.3151674E+03  0.8160152E+03  0.1151905E+06  0.6528483E+03  0.2033911E+06  0.3272215E+04 -0.3675910E+06  0.3928685E+03  0.2033321E+04  0.4137585E+04
  0.1715000E+01 -0.7516680E+03 -0.7023894E+03  0.4045833E+03  0.5783826E+03  0.1155621E+06  0.3197401E+03  0.2043687E+06  0.1976863E+04 -0.3684621E+06  0.7014880E+03  0.2491437E+04  0.2929842E+04
  0.1762500E+01 -0.8858492E+03 -0.4563984E+03  0.5336315E+03  0.3605499E+03  0.1158215E+06  0.1502865E+03  0.2052493E+06  0.1101115E+04 -0.3688551E+06  0.5951772E+03  0.3143066E+04  0.1819971E+04
  0.1810000E+01 -0.1013249E+04 -0.2690534E+03  0.6540844E+03  0.1961753E+03  0.1160304E+06  0.1082983E+03  0.2060272E+06  0.5811490E+03 -0.3690929E+06  0.2171631E+03  0.3753738E+04  0.9854158E+03
  0.1857500E+01 -0.1130306E+04 -0.1238493E+03  0.7627211E+03  0.7046386E+02  0.1161909E+06  0.1652105E+03  0.2067009E+06  0.2769055E+03 -0.3691863E+06 -0.4366233E+03  0.4308943E+04  0.3423034E+03
  0.1905000E+01 -0.1246488E+04 -0.2538460E+02  0.8709749E+03 -0.1352853E+02  0.1163280E+06  0.1834323E+03  0.2073008E+06  0.8356513E+02 -0.3692386E+06 -0.7630945E+03  0.4856549E+04 -0.8407101E+02
  0.1952500E+01 -0.1325971E+04  0.2904289E+02  0.9446540E+03 -0.6056268E+02  0.1165281E+06  0.9334053E+02  0.2078612E+06 -0.1504581E+03 -0.3696642E+06 -0.5560610E+03  0.5232201E+04 -0.3166545E+03
  0.2000000E+01 -0.1418805E+04  0.6651770E+02  0.1029597E+04 -0.8739494E+02  0.1166587E+06  0.1013830E+03  0.2083522E+06 -0.1930878E+03 -0.3698018E+06 -0.6675076E+03  0.5663795E+04 -0.4587986E+03
Zone t="Motion of body    1 in DoF   4",I=    41,F=POINT
  0.1000000E+00 -0.1455422E+07 -0.7984924E-01  0.2973933E+07  0.1597080E+00  0.2281642E+06  0.1948976E+03  0.1657453E+08  0.3255280E+03  0.6938798E+07 -0.6493182E+03  0.1459206E+08  0.7104816E+00
  0.1475000E+00 -0.1465916E+07 -0.1327930E+01  0.2993423E+07  0.2524786E+01  0.2294585E+06  0.6061422E+03  0.1664618E+08  0.1021417E+04  0.6973606E+07 -0.2014493E+04  0.1468455E+08  0.1131744E+02
  0.1950000E+00 -0.1473998E+07 -0.9548943E+01  0.3007253E+07  0.1783727E+02  0.2301835E+06  0.1340948E+04  0.1668882E+08  0.2314436E+04  0.6996229E+07 -0.4426045E+04  0.1475254E+08  0.8021864E+02
  0.2425000E+00 -0.1481284E+07 -0.4386169E+02  0.3019858E+07  0.8115498E+02  0.2299055E+06  0.2439348E+04  0.1673594E+08  0.4427748E+04  0.7025514E+07 -0.7928856E+04  0.1481128E+08  0.3654446E+03
  0.2900000E+00 -0.1492104E+07 -0.1521083E+03  0.3037889E+07  0.2794678E+03  0.2295762E+06  0.3897579E+04  0.1679570E+08  0.7740542E+04  0.7063594E+07 -0.1229047E+05  0.1489757E+08  0.1259883E+04
  0.3375000E+00 -0.1503779E+07 -0.4333123E+03  0.3057663E+07  0.7913535E+03  0.2283604E+06  0.5670333E+04  0.1686799E+08  0.1296496E+05  0.7112530E+07 -0.1690688E+05  0.1498999E+08  0.3571135E+04
  0.3850000E+00 -0.1518284E+07 -0.1069503E+04  0.3081815E+07  0.1941528E+04  0.2261604E+06  0.7675885E+04  0.1695387E+08  0.2138225E+05  0.7175370E+07 -0.2068271E+05  0.1510362E+08  0.8769916E+04
  0.4325000E+00 -0.1534965E+07 -0.2364360E+04  0.3109959E+07  0.4264887E+04  0.2233036E+06  0.9805509E+04  0.1705714E+08  0.3512471E+05  0.7250807E+07 -0.2189809E+05  0.1523386E+08  0.1928478E+05
  0.4800000E+00 -0.1556582E+07 -0.4797468E+04  0.3145813E+07  0.8589861E+04  0.2202712E+06  0.1193572E+05  0.1718579E+08  0.5751757E+05  0.7344373E+07 -0.1803246E+05  0.1540196E+08  0.3889004E+05
  0.5275000E+00 -0.1582142E+07 -0.9081408E+04  0.3188191E+07  0.1612206E+05  0.2174451E+06  0.1394642E+05  0.1733786E+08  0.9339862E+05  0.7449712E+07 -0.5628277E+04  0.1560065E+08  0.7310027E+05
  0.5750000E+00 -0.1610286E+07 -0.1621115E+05  0.3234098E+07  0.2850934E+05  0.2133033E+06  0.1572819E+05  0.1750160E+08  0.1494064E+06  0.7571900E+07  0.1991599E+05  0.1581522E+08  0.1294715E+06
  0.6225000E+00 -0.1643523E+07 -0.2759426E+05  0.3287418E+07  0.4800092E+05  0.2101032E+06  0.1719170E+05  0.1768952E+08  0.2344183E+06  0.7705868E+07  0.6467067E+05  0.1606702E+08  0.2184043E+06
  0.6700000E+00 -0.1680893E+07 -0.4508111E+05  0.3347680E+07  0.7746852E+05  0.2064980E+06  0.1829312E+05  0.1790172E+08  0.3597349E+06  0.7856828E+07  0.1362777E+06  0.1634998E+08  0.3532382E+06
  0.7175000E+00 -0.1721391E+07 -0.7104817E+05  0.3410848E+07  0.1204611E+06  0.2037631E+06  0.1899655E+05  0.1811760E+08  0.5388032E+06  0.8011830E+07  0.2441171E+06  0.1664988E+08  0.5505735E+06
  0.7650000E+00 -0.1764070E+07 -0.1084749E+06  0.3477612E+07  0.1812654E+06  0.2007173E+06  0.1932018E+05  0.1834219E+08  0.7876369E+06  0.8172971E+07  0.3994466E+06  0.1696689E+08  0.8306395E+06
  0.8125000E+00 -0.1807866E+07 -0.1609894E+06  0.3544720E+07  0.2648578E+06  0.1992297E+06  0.1941071E+05  0.1855747E+08  0.1123775E+07  0.8323293E+07  0.6146821E+06  0.1728910E+08  0.1217206E+07
  0.8600000E+00 -0.1846213E+07 -0.2320404E+06  0.3602648E+07  0.3758616E+06  0.1966153E+06  0.1901463E+05  0.1872720E+08  0.1562522E+07  0.8453182E+07  0.9028716E+06  0.1756924E+08  0.1732474E+07
  0.9075000E+00 -0.1877314E+07 -0.3256889E+06  0.3649164E+07  0.5194287E+06  0.1953846E+06  0.1864528E+05  0.1883868E+08  0.2118624E+07  0.8536226E+07  0.1273643E+07  0.1780026E+08  0.2401697E+07
  0.9550000E+00 -0.1893095E+07 -0.4439805E+06  0.3673952E+07  0.6980774E+06  0.1944294E+06  0.1808873E+05  0.1886101E+08  0.2797630E+07  0.8555720E+07  0.1733296E+07  0.1793007E+08  0.3237417E+07
  0.1002500E+01 -0.1887602E+07 -0.5876171E+06  0.3670556E+07  0.9125634E+06  0.1931061E+06  0.1730005E+05  0.1876602E+08  0.3594101E+07  0.8487552E+07  0.2278150E+07  0.1792679E+08  0.4244104E+07
  0.1050000E+01 -0.1855026E+07 -0.7537943E+06  0.3630852E+07  0.1159207E+07  0.1926495E+06  0.1682849E+05  0.1852324E+08  0.4484347E+07  0.8304762E+07  0.2887884E+07  0.1775663E+08  0.5406560E+07
  0.1097500E+01 -0.1785341E+07 -0.9311926E+06  0.3541535E+07  0.1424331E+07  0.1922375E+06  0.1620330E+05  0.1810098E+08  0.5412477E+07  0.7988582E+07  0.3519652E+07  0.1734946E+08  0.6658624E+07
  0.1145000E+01 -0.1681852E+07 -0.1109009E+07  0.3408744E+07  0.1695236E+07  0.1912792E+06  0.1510004E+05  0.1752466E+08  0.6324680E+07  0.7554802E+07  0.4128960E+07  0.1673630E+08  0.7941312E+07
  0.1192500E+01 -0.1544384E+07 -0.1266648E+07  0.3229167E+07  0.1947314E+07  0.1907494E+06  0.1423581E+05  0.1679351E+08  0.7123530E+07  0.7005226E+07  0.4631413E+07  0.1590269E+08  0.9137367E+07
  0.1240000E+01 -0.1386602E+07 -0.1391458E+07  0.3019996E+07  0.2164357E+07  0.1908234E+06  0.1392565E+05  0.1597862E+08  0.7759010E+07  0.6398942E+07  0.4989134E+07  0.1493084E+08  0.1017124E+08
  0.1287500E+01 -0.1217990E+07 -0.1463733E+07  0.2788128E+07  0.2321140E+07  0.1903090E+06  0.1202425E+05  0.1511294E+08  0.8141005E+07  0.5781441E+07  0.5144004E+07  0.1385153E+08  0.1092198E+08
  0.1335000E+01 -0.1056932E+07 -0.1487597E+07  0.2560612E+07  0.2421738E+07  0.1900585E+06  0.1025558E+05  0.1429788E+08  0.8310528E+07  0.5215229E+07  0.5121854E+07  0.1279348E+08  0.1141346E+08
  0.1382500E+01 -0.9126904E+06 -0.1460649E+07  0.2344816E+07  0.2459140E+07  0.1901581E+06  0.8908660E+04  0.1355943E+08  0.8243602E+07  0.4729580E+07  0.4914055E+07  0.1179254E+08  0.1161514E+08