VARIABLES="w (rad/s)"
"abs(F   1   1)" "angle(F   1   1)"
"abs(F   1   2)" "angle(F   1   2)"
"abs(F   1   3)" "angle(F   1   3)"
"abs(F   1   4)" "angle(F   1   4)"
"abs(F   1   5)" "angle(F   1   5)"
"abs(F   1   6)" "angle(F   1   6)"
"abs(F   2   1)" "angle(F   2   1)"
"abs(F   2   2)" "angle(F   2   2)"
"abs(F   2   3)" "angle(F   2   3)"
"abs(F   2   4)" "angle(F   2   4)"
"abs(F   2   5)" "angle(F   2   5)"
"abs(F   2   6)" "angle(F   2   6)"
Zone t="Diffraction force - beta =  45.000 deg",I=    40,F=POINT
  0.1000000E+00  0.1629888E+05 -0.1065485E+01  0.1629695E+05 -0.1063827E+01  0.5063996E+04 -0.2340668E+01  0.1192859E+05  0.2078080E+01  0.5030452E+06  0.7782598E+00  0.1629694E+07 -0.1063827E+01  0.9248148E+04 -0.1567450E+01  0.9303515E+04 -0.1569003E+01  0.1532155E+04 -0.2417282E+01  0.4194125E+04  0.1573461E+01  0.4172233E+04 -0.1565843E+01  0.5164452E+00 -0.2659126E-02
  0.1487180E+00  0.2431899E+05 -0.8161266E+00  0.2431918E+05 -0.8130696E+00  0.1034923E+05 -0.2060749E+01  0.1778683E+05  0.2329490E+01  0.1029348E+07  0.1064503E+01  0.2431918E+07 -0.8130698E+00  0.1374836E+05 -0.1568700E+01  0.1388003E+05 -0.1567847E+01  0.2372551E+04 -0.2501743E+01  0.6269531E+04  0.1575157E+01  0.6205128E+04 -0.1567623E+01  0.1081786E+01  0.9031125E-01
  0.1974359E+00  0.3247257E+05 -0.5626813E+00  0.3248496E+05 -0.5581529E+00  0.1711435E+05 -0.1786178E+01  0.2371866E+05  0.2585375E+01  0.1703490E+07  0.1342350E+01  0.3248494E+07 -0.5581533E+00  0.1825136E+05 -0.1575478E+01  0.1847757E+05 -0.1567022E+01  0.3298497E+04 -0.2799993E+01  0.8328591E+04  0.1576379E+01  0.8208213E+04 -0.1577708E+01  0.2023535E+01  0.2137186E-01
  0.2461538E+00  0.4084889E+05 -0.3039946E+00  0.4085795E+05 -0.2976972E+00  0.2514856E+05 -0.1510313E+01  0.2970009E+05  0.2847159E+01  0.2504395E+07  0.1620218E+01  0.4085796E+07 -0.2976973E+00  0.2297371E+05 -0.1586245E+01  0.2317904E+05 -0.1566863E+01  0.5536193E+04 -0.3127958E+01  0.1050463E+05  0.1576587E+01  0.1040515E+05 -0.1593550E+01  0.3194047E+01  0.1016618E-01
  0.2948718E+00  0.4939233E+05 -0.3850428E-01  0.4938138E+05 -0.3021227E-01  0.3432782E+05 -0.1231582E+01  0.3578786E+05  0.3116374E+01  0.3419709E+07  0.1900292E+01  0.4938134E+07 -0.3021219E-01  0.2803477E+05 -0.1595685E+01  0.2792431E+05 -0.1567377E+01  0.9925748E+04  0.3047976E+01  0.1264054E+05  0.1575832E+01  0.1275889E+05 -0.1607359E+01  0.4619545E+01  0.4809323E-02
  0.3435898E+00  0.5819249E+05  0.2354512E+00  0.5814204E+05  0.2459427E+00  0.4468612E+05 -0.9479917E+00  0.4183231E+05 -0.2888401E+01  0.4452944E+07  0.2184900E+01  0.5814200E+07  0.2459429E+00  0.3372178E+05 -0.1594901E+01  0.3290375E+05 -0.1568102E+01  0.1621435E+05  0.3103566E+01  0.1500503E+05  0.1574732E+01  0.1560477E+05 -0.1605651E+01  0.6407199E+01 -0.9335509E-03
  0.3923077E+00  0.6748965E+05  0.5199310E+00  0.6737200E+05  0.5325367E+00  0.5568985E+05 -0.6548936E+00  0.4823005E+05 -0.2599032E+01  0.5550540E+07  0.2478666E+01  0.6737198E+07  0.5325364E+00  0.3973733E+05 -0.1577333E+01  0.3803859E+05 -0.1568079E+01  0.2334120E+05 -0.3045469E+01  0.1743332E+05  0.1574754E+01  0.1862593E+05 -0.1580119E+01  0.8397971E+01  0.5203801E-02
  0.4410256E+00  0.7710984E+05  0.8169088E+00  0.7687570E+05  0.8316469E+00  0.6788366E+05 -0.3518063E+00  0.5461202E+05 -0.2296381E+01  0.6767210E+07  0.2782325E+01  0.7687570E+07  0.8316469E+00  0.4556917E+05 -0.1543412E+01  0.4339934E+05 -0.1566172E+01  0.3008844E+05 -0.2877917E+01  0.1994304E+05  0.1577519E+01  0.2146047E+05 -0.1532051E+01  0.1082627E+02  0.1490096E-01
  0.4897436E+00  0.8709727E+05  0.1128187E+01  0.8668195E+05  0.1145483E+01  0.8025996E+05 -0.3408315E-01  0.6101118E+05 -0.1978085E+01  0.8002062E+07  0.3100445E+01  0.8668190E+07  0.1145483E+01  0.5043935E+05 -0.1503569E+01  0.4907296E+05 -0.1561639E+01  0.3442420E+05 -0.2708310E+01  0.2274478E+05  0.1584030E+01  0.2375589E+05 -0.1475201E+01  0.1348254E+02  0.7913239E-02
  0.5384616E+00  0.9803155E+05  0.1456631E+01  0.9728695E+05  0.1476642E+01  0.9344721E+05  0.2994571E+00  0.6784122E+05 -0.1641397E+01  0.9317848E+07 -0.2848905E+01  0.9728701E+07  0.1476642E+01  0.5369071E+05 -0.1480782E+01  0.5493520E+05 -0.1554662E+01  0.3511877E+05 -0.2579463E+01  0.2565778E+05  0.1593947E+01  0.2495988E+05 -0.1440979E+01  0.1638121E+02 -0.1437139E-01
  0.5871795E+00  0.1098804E+06  0.1805655E+01  0.1085730E+06  0.1827844E+01  0.1066006E+06  0.6522032E+00  0.7527209E+05 -0.1283618E+01  0.1063011E+08 -0.2496026E+01  0.1085730E+08  0.1827844E+01  0.5600514E+05 -0.1506697E+01  0.6091852E+05 -0.1546921E+01  0.3208516E+05 -0.2574370E+01  0.2865864E+05  0.1604868E+01  0.2547497E+05 -0.1476127E+01  0.2079237E+02 -0.8460094E-02
  0.6358975E+00  0.1224041E+06  0.2180207E+01  0.1202922E+06  0.2202473E+01  0.1192186E+06  0.1022292E+01  0.8252568E+05 -0.9005031E+00  0.1188969E+08 -0.2125900E+01  0.1202921E+08  0.2202473E+01  0.6066691E+05 -0.1590265E+01  0.6697957E+05 -0.1540831E+01  0.3075053E+05 -0.2815542E+01  0.3158707E+05  0.1613460E+01  0.2742289E+05 -0.1599633E+01  0.2481542E+02  0.1213087E-01
  0.6846154E+00  0.1357047E+06  0.2584494E+01  0.1327826E+06  0.2604240E+01  0.1325549E+06  0.1413175E+01  0.9005655E+05 -0.4880626E+00  0.1322234E+08 -0.1735008E+01  0.1327825E+08  0.2604239E+01  0.7225060E+05 -0.1661737E+01  0.7357509E+05 -0.1537709E+01  0.4090956E+05 -0.3078804E+01  0.3497131E+05  0.1617582E+01  0.3423586E+05 -0.1699738E+01  0.2856284E+02 -0.8818762E-01
  0.7333333E+00  0.1495829E+06  0.3019565E+01  0.1462518E+06  0.3036431E+01  0.1456368E+06  0.1830272E+01  0.9840378E+05 -0.4315597E-01  0.1453054E+08 -0.1317957E+01  0.1462519E+08  0.3036431E+01  0.8972127E+05 -0.1628330E+01  0.8111835E+05 -0.1535269E+01  0.5940365E+05 -0.3056709E+01  0.3911122E+05  0.1620464E+01  0.4500241E+05 -0.1648045E+01  0.3449077E+02  0.1044796E-01
  0.7820513E+00  0.1643377E+06 -0.2798719E+01  0.1607788E+06 -0.2779811E+01  0.1589046E+06  0.2281840E+01  0.1073232E+06  0.4392902E+00  0.1585723E+08 -0.8664335E+00  0.1607787E+08 -0.2779811E+01  0.1039724E+06 -0.1490388E+01  0.8959192E+05 -0.1526387E+01  0.7459990E+05 -0.2855631E+01  0.4384793E+05  0.1632181E+01  0.5369634E+05 -0.1465577E+01  0.3901282E+02  0.3563915E-02
  0.8307692E+00  0.1813085E+06 -0.2297819E+01  0.1762137E+06 -0.2273271E+01  0.1715250E+06  0.2778078E+01  0.1166076E+06  0.9648798E+00  0.1711819E+08 -0.3703435E+00  0.1762135E+08 -0.2273272E+01  0.1037948E+06 -0.1329385E+01  0.9865326E+05 -0.1505579E+01  0.7638249E+05 -0.2609159E+01  0.4892074E+05  0.1659954E+01  0.5312159E+05 -0.1249277E+01  0.4653580E+02  0.4732178E-02
  0.8794872E+00  0.2005984E+06 -0.1743661E+01  0.1921524E+06 -0.1724143E+01  0.1804392E+06 -0.2976300E+01  0.1265003E+06  0.1536358E+01  0.1801211E+08  0.1579884E+00  0.1921524E+08 -0.1724144E+01  0.8838186E+05 -0.1343971E+01  0.1073119E+06 -0.1478531E+01  0.6090935E+05 -0.2502079E+01  0.5381026E+05  0.1696058E+01  0.4165166E+05 -0.1240883E+01  0.5340577E+02  0.3408431E-01
  0.9282051E+00  0.2170805E+06 -0.1129595E+01  0.2078814E+06 -0.1128706E+01  0.1886972E+06 -0.2426973E+01  0.1356902E+06  0.2159692E+01  0.1885033E+08  0.7069598E+00  0.2078813E+08 -0.1128708E+01  0.9792082E+05 -0.1667473E+01  0.1155940E+06 -0.1458711E+01  0.5323352E+05 -0.2876255E+01  0.5863594E+05  0.1722061E+01  0.4661103E+05 -0.1709161E+01  0.6027517E+02 -0.2428880E-01
  0.9769231E+00  0.2290216E+06 -0.4871172E+00  0.2237036E+06 -0.4834984E+00  0.2006808E+06 -0.1825388E+01  0.1447145E+06  0.2838621E+01  0.2005947E+08  0.1308731E+01  0.2237033E+08 -0.4834999E+00  0.1496929E+06 -0.1628188E+01  0.1258250E+06 -0.1444674E+01  0.8190960E+05 -0.3018353E+01  0.6492848E+05  0.1738853E+01  0.8113962E+05 -0.1643102E+01  0.7235255E+02 -0.1241528E+00
  0.1025641E+01  0.2486205E+06  0.1801843E+00  0.2391595E+06  0.2111084E+00  0.2081885E+06 -0.1148807E+01  0.1551996E+06 -0.2715115E+01  0.2080983E+08  0.1984937E+01  0.2391593E+08  0.2111061E+00  0.1746990E+06 -0.1274521E+01  0.1383031E+06 -0.1411877E+01  0.1018506E+06 -0.2730356E+01  0.7324788E+05  0.1778763E+01  0.9919829E+05 -0.1208372E+01  0.9279791E+02  0.2166966E-01
  0.1074359E+01  0.2724234E+06  0.9517530E+00  0.2523681E+06  0.9547437E+00  0.2068456E+06 -0.4539547E+00  0.1636722E+06 -0.1929769E+01  0.2069655E+08  0.2678744E+01  0.2523681E+08  0.9547398E+00  0.1244939E+06 -0.1032206E+01  0.1485778E+06 -0.1357465E+01  0.8221197E+05 -0.2452965E+01  0.8006396E+05  0.1847718E+01  0.6720105E+05 -0.8497612E+00  0.9463160E+02  0.1276167E+00
  0.1123077E+01  0.2729066E+06  0.1773720E+01  0.2626501E+06  0.1747923E+01  0.2120210E+06  0.2593640E+00  0.1697724E+06 -0.1087584E+01  0.2124716E+08 -0.2890548E+01  0.2626500E+08  0.1747918E+01  0.1248239E+06 -0.1661703E+01  0.1557657E+06 -0.1315904E+01  0.6238728E+05 -0.2822689E+01  0.8472911E+05  0.1900897E+01  0.6224195E+05 -0.1697116E+01  0.9402211E+02  0.4925462E-01
  0.1171795E+01  0.2842362E+06  0.2554980E+01  0.2697072E+06  0.2587072E+01  0.2163720E+06  0.1077048E+01  0.1753533E+06 -0.1983699E+00  0.2167847E+08 -0.2072950E+01  0.2697079E+08  0.2587065E+01  0.2264212E+06 -0.1415276E+01  0.1659533E+06 -0.1280437E+01  0.9780062E+05 -0.2909527E+01  0.9214538E+05  0.1942564E+01  0.1336382E+06 -0.1384958E+01  0.1367548E+03 -0.1107507E+00
  0.1220513E+01  0.3091159E+06 -0.2780388E+01  0.2727704E+06 -0.2816341E+01  0.2055002E+06  0.1897182E+01  0.1790133E+06  0.7370123E+00  0.2063399E+08 -0.1254202E+01  0.2727721E+08 -0.2816349E+01  0.1988758E+06 -0.8308531E+00  0.1759402E+06 -0.1211880E+01  0.1005565E+06 -0.2526199E+01  0.1004614E+06  0.2025139E+01  0.1229569E+06 -0.6829016E+00  0.1550030E+03  0.1896234E+00
  0.1269231E+01  0.2820012E+06 -0.1822153E+01  0.2710698E+06 -0.1897884E+01  0.2076405E+06  0.2724668E+01  0.1794569E+06  0.1716864E+01  0.2088343E+08 -0.4245845E+00  0.2710727E+08 -0.1897893E+01  0.1082829E+06 -0.1377022E+01  0.1787086E+06 -0.1148217E+01  0.6546194E+05 -0.2617223E+01  0.1039104E+06  0.2104554E+01  0.5103934E+05 -0.1268629E+01  0.1229323E+03  0.1430407E+00
  0.1317949E+01  0.2950946E+06 -0.9158671E+00  0.2655564E+06 -0.9434554E+00  0.2022572E+06 -0.2623860E+01  0.1771251E+06  0.2741626E+01  0.2034553E+08  0.5093802E+00  0.2655613E+08 -0.9434626E+00  0.2524647E+06 -0.1320937E+01  0.1830595E+06 -0.1100595E+01  0.9105309E+05 -0.2887041E+01  0.1084230E+06  0.2161678E+01  0.1558838E+06 -0.1274799E+01  0.1899071E+03 -0.2266707E+00
  0.1366667E+01  0.2781024E+06  0.2320567E+00  0.2560326E+06  0.4426789E-01  0.1917360E+06 -0.1724004E+01  0.1741386E+06 -0.2486516E+01  0.1935584E+08  0.1411019E+01  0.2560394E+08  0.4426716E-01  0.2110563E+06 -0.6119321E+00  0.1854390E+06 -0.1022846E+01  0.9428282E+05 -0.2525086E+01  0.1129676E+06  0.2254555E+01  0.1408394E+06 -0.4425823E+00  0.2146960E+03  0.2809257E+00
  0.1415385E+01  0.2363504E+06  0.1174517E+01  0.2436276E+06  0.1061289E+01  0.1926114E+06 -0.7474571E+00  0.1694128E+06 -0.1393368E+01  0.1942092E+08  0.2389664E+01  0.2436366E+08  0.1061301E+01  0.1183752E+06 -0.1336812E+01  0.1813299E+06 -0.9602466E+00  0.6545613E+05 -0.2651129E+01  0.1127273E+06  0.2333873E+01  0.6035459E+05 -0.1217627E+01  0.1516664E+03 -0.1159000E+00
  0.1464103E+01  0.2349683E+06  0.2322199E+01  0.2283682E+06  0.2107385E+01  0.1794640E+06  0.2512228E+00  0.1626189E+06 -0.2639843E+00  0.1813776E+08 -0.2894070E+01  0.2283781E+08  0.2107419E+01  0.2608216E+06 -0.9807160E+00  0.1783484E+06 -0.9029783E+00  0.8791106E+05 -0.2771263E+01  0.1135671E+06  0.2403591E+01  0.1737622E+06 -0.8835307E+00  0.2807574E+03 -0.3454436E-01
  0.1512820E+01  0.1675479E+06 -0.2913093E+01  0.2112030E+06 -0.3101182E+01  0.1799371E+06  0.1276267E+01  0.1541250E+06  0.9075502E+00  0.1815208E+08 -0.1865320E+01  0.2112107E+08 -0.3101114E+01  0.1461688E+06 -0.3624226E+00  0.1706806E+06 -0.8312828E+00  0.7686311E+05 -0.2502594E+01  0.1111114E+06  0.2495600E+01  0.1057680E+06 -0.9388572E-01  0.2059270E+03  0.4154983E+00
  0.1561538E+01  0.1647275E+06 -0.1900401E+01  0.1922787E+06 -0.2000025E+01  0.1689154E+06  0.2382061E+01  0.1457219E+06  0.2105126E+01  0.1703830E+08 -0.7599420E+00  0.1922804E+08 -0.1999913E+01  0.1670227E+06 -0.1241366E+01  0.1606479E+06 -0.7795203E+00  0.6582691E+05 -0.2756977E+01  0.1071499E+06  0.2564068E+01  0.1029733E+06 -0.1142181E+01  0.2693943E+03 -0.6351290E-01
  0.1610256E+01  0.1133044E+06 -0.8581136E+00  0.1725895E+06 -0.8752035E+00  0.1630761E+06 -0.2798845E+01  0.1366311E+06 -0.2943199E+01  0.1642384E+08  0.3451020E+00  0.1725789E+08 -0.8750534E+00  0.2019945E+06 -0.4877615E+00  0.1501633E+06 -0.7192799E+00  0.7669541E+05 -0.2618752E+01  0.1029408E+06  0.2643698E+01  0.1494521E+06 -0.3098573E+00  0.3154467E+03  0.3818891E+00
  0.1658974E+01  0.1242447E+06  0.2686071E-01  0.1525068E+06  0.2717977E+00  0.1521378E+06 -0.1615845E+01  0.1266741E+06 -0.1664818E+01  0.1530047E+08  0.1526757E+01  0.1524791E+08  0.2719532E+00  0.7353340E+05 -0.7586486E+00  0.1361536E+06 -0.6676437E+00  0.5934998E+05 -0.2579674E+01  0.9536705E+05  0.2721388E+01  0.4531761E+05 -0.2609895E+00  0.2346364E+03  0.5365029E-01
  0.1707692E+01  0.1049923E+06  0.1109507E+01  0.1321983E+06  0.1435231E+01  0.1409838E+06 -0.4417015E+00  0.1159889E+06 -0.3439535E+00  0.1417019E+08  0.2702254E+01  0.1321519E+08  0.1435292E+01  0.1774733E+06 -0.7638075E+00  0.1228041E+06 -0.6215949E+00  0.6489550E+05 -0.2710934E+01  0.8817454E+05  0.2792824E+01  0.1283841E+06 -0.5970772E+00  0.4130622E+03  0.3162626E+00
  0.1756410E+01  0.1310686E+06  0.2178426E+01  0.1130078E+06  0.2607342E+01  0.1287735E+06  0.8141698E+00  0.1051639E+06  0.1023507E+01  0.1292578E+08 -0.2327231E+01  0.1129518E+08  0.2607130E+01  0.8910314E+05  0.9621602E-01  0.1067682E+06 -0.5695956E+00  0.5815893E+05 -0.2521585E+01  0.7852962E+05  0.2884745E+01  0.8301027E+05  0.4438491E+00  0.1483522E+03  0.6248485E+00
  0.1805128E+01  0.1163804E+06 -0.2800217E+01  0.9614797E+05 -0.2504316E+01  0.1154340E+06  0.2057002E+01  0.9441545E+05  0.2416739E+01  0.1159867E+08 -0.1083561E+01  0.9611006E+07 -0.2504997E+01  0.1272020E+06 -0.1056346E+01  0.9170845E+05 -0.5389748E+00  0.5203841E+05 -0.2728025E+01  0.6922047E+05  0.2954939E+01  0.8636375E+05 -0.8917211E+00  0.5809643E+03  0.2149016E+00
  0.1853846E+01  0.1367874E+06 -0.1496147E+01  0.8313144E+05 -0.1330250E+01  0.1019876E+06 -0.2926906E+01  0.8414262E+05 -0.2435507E+01  0.1025093E+08  0.2130491E+00  0.8314842E+07 -0.1331361E+01  0.1021511E+06  0.3307455E+00  0.7487189E+05 -0.4809352E+00  0.5251279E+05 -0.2540198E+01  0.5877078E+05  0.3080743E+01  0.1015811E+06  0.5808858E+00  0.2000336E+03  0.2328130E+01
  0.1902564E+01  0.1082573E+06 -0.6739701E-01  0.7373791E+05 -0.1289352E+00  0.9023545E+05 -0.1632403E+01  0.7518273E+05 -0.9688789E+00  0.9087802E+07  0.1510179E+01  0.7382648E+07 -0.1298658E+00  0.8850337E+05 -0.1341317E+01  0.5938100E+05 -0.4721341E+00  0.4300661E+05 -0.2720785E+01  0.4766019E+05 -0.3107473E+01  0.5411018E+05 -0.1221279E+01  0.9248898E+03  0.1880334E+00
  0.1951282E+01  0.1112865E+06  0.1455293E+01  0.6565748E+05  0.1120011E+01  0.7797561E+05 -0.2764936E+00  0.6858055E+05  0.5307840E+00  0.7878282E+07  0.2865216E+01  0.6579056E+07  0.1120175E+01  0.8172314E+05  0.5794069E+00  0.4212285E+05 -0.3879121E+00  0.4486522E+05 -0.2544763E+01  0.3736136E+05 -0.2862509E+01  0.9075046E+05  0.8086158E+00  0.7030642E+03 -0.3141376E+01
  0.2000000E+01  0.7147580E+05  0.2934978E+01  0.5655538E+05  0.2421466E+01  0.6872824E+05  0.1061346E+01  0.6543800E+05  0.2068756E+01  0.6944788E+07 -0.2074190E+01  0.5665938E+07  0.2423421E+01  0.6390727E+05 -0.1603499E+01  0.2717345E+05 -0.4182803E+00  0.3572196E+05 -0.2704224E+01  0.2680810E+05 -0.2621865E+01  0.3575291E+05 -0.1624706E+01  0.1605266E+04  0.4416774E+00
