VARIABLES="w (rad/s)"
"abs(F   1   1)" "angle(F   1   1)"
"abs(F   1   2)" "angle(F   1   2)"
"abs(F   1   3)" "angle(F   1   3)"
"abs(F   1   4)" "angle(F   1   4)"
"abs(F   1   5)" "angle(F   1   5)"
"abs(F   1   6)" "angle(F   1   6)"
"abs(F   2   1)" "angle(F   2   1)"
"abs(F   2   2)" "angle(F   2   2)"
"abs(F   2   3)" "angle(F   2   3)"
"abs(F   2   4)" "angle(F   2   4)"
"abs(F   2   5)" "angle(F   2   5)"
"abs(F   2   6)" "angle(F   2   6)"
Zone t="Diffraction force - beta =  45.000 deg",I=    40,F=POINT
  0.1000000E+00  0.4108136E+05 -0.1064743E+01  0.4107938E+05 -0.1064086E+01  0.9715757E+06  0.5050281E+00  0.5298130E+05  0.2077491E+01  0.9715750E+08 -0.2636019E+01  0.4107925E+07 -0.1064091E+01  0.2164067E+05 -0.1569368E+01  0.2169606E+05 -0.1570028E+01  0.4871156E+06 -0.2084179E-02  0.1447117E+05  0.1571571E+01  0.1443088E+05 -0.1569360E+01  0.4998437E+00 -0.2808479E-02
  0.1487180E+00  0.6121348E+05 -0.8150565E+00  0.6121359E+05 -0.8138425E+00  0.9610758E+06  0.7530130E+00  0.7883102E+05  0.2327747E+01  0.9610736E+08 -0.2387760E+01  0.6121364E+07 -0.8138416E+00  0.3219999E+05 -0.1569901E+01  0.3233163E+05 -0.1569531E+01  0.4836537E+06 -0.2928938E-02  0.2157349E+05  0.1572042E+01  0.2148181E+05 -0.1569880E+01  0.1093523E+01  0.9001180E-01
  0.1974359E+00  0.8152527E+05 -0.5614932E+00  0.8153782E+05 -0.5596905E+00  0.9470951E+06  0.1003972E+01  0.1047434E+06  0.2581904E+01  0.9470900E+08 -0.2136515E+01  0.8153762E+07 -0.5596923E+00  0.4278803E+05 -0.1572794E+01  0.4301427E+05 -0.1569175E+01  0.4786877E+06 -0.2308353E-02  0.2868369E+05  0.1572426E+01  0.2852712E+05 -0.1572785E+01  0.2002021E+01  0.2077823E-01
  0.2461538E+00  0.1021230E+06 -0.3027942E+00  0.1021319E+06 -0.3002735E+00  0.9298698E+06  0.1259212E+01  0.1306943E+06  0.2841319E+01  0.9298594E+08 -0.1880977E+01  0.1021318E+08 -0.3002747E+00  0.5362965E+05 -0.1577414E+01  0.5383645E+05 -0.1569103E+01  0.4714531E+06 -0.1601010E-03  0.3594420E+05  0.1572488E+01  0.3579801E+05 -0.1577409E+01  0.3182292E+01  0.8995363E-02
  0.2948718E+00  0.1229691E+06 -0.3748077E-01  0.1229576E+06 -0.3415076E-01  0.9095366E+06  0.1520143E+01  0.1567393E+06  0.3107446E+01  0.9095174E+08 -0.1619727E+01  0.1229575E+08 -0.3415094E-01  0.6485414E+05 -0.1581554E+01  0.6474852E+05 -0.1569322E+01  0.4612672E+06  0.2011531E-02  0.4320762E+05  0.1572265E+01  0.4326645E+05 -0.1581574E+01  0.4610755E+01  0.4792016E-02
  0.3435898E+00  0.1441732E+06  0.2360387E+00  0.1441212E+06  0.2402712E+00  0.8860868E+06  0.1788227E+01  0.1827296E+06 -0.2901320E+01  0.8860546E+08 -0.1351304E+01  0.1441213E+08  0.2402721E+00  0.7676490E+05 -0.1581384E+01  0.7595229E+05 -0.1569629E+01  0.4480858E+06  0.1375696E-02  0.5075372E+05  0.1571965E+01  0.5128473E+05 -0.1581400E+01  0.6346649E+01  0.2115708E-03
  0.3923077E+00  0.1659971E+06  0.5195968E+00  0.1658762E+06  0.5247173E+00  0.8600952E+06  0.2065154E+01  0.2090633E+06 -0.2616874E+01  0.8600447E+08 -0.1074008E+01  0.1658761E+08  0.5247151E+00  0.8907989E+05 -0.1573712E+01  0.8738155E+05 -0.1569613E+01  0.4331959E+06 -0.5171311E-02  0.5842969E+05  0.1571980E+01  0.5955112E+05 -0.1573712E+01  0.8479034E+01  0.5355607E-02
  0.4410256E+00  0.1882907E+06  0.8151078E+00  0.1880498E+06  0.8211308E+00  0.8310878E+06  0.2352456E+01  0.2353751E+06 -0.2320461E+01  0.8310124E+08 -0.7863054E+00  0.1880497E+08  0.8211287E+00  0.1012816E+06 -0.1558477E+01  0.9912091E+05 -0.1568772E+01  0.4186020E+06 -0.1873481E-01  0.6626683E+05  0.1572824E+01  0.6769455E+05 -0.1558517E+01  0.1080373E+02  0.1440095E-01
  0.4897436E+00  0.2111235E+06  0.1124525E+01  0.2106952E+06  0.1131633E+01  0.8001206E+06  0.2652316E+01  0.2617011E+06 -0.2009955E+01  0.8000121E+08 -0.4860041E+00  0.2106953E+08  0.1131633E+01  0.1125768E+06 -0.1540694E+01  0.1112722E+06 -0.1566757E+01  0.4067894E+06 -0.3553711E-01  0.7449043E+05  0.1574838E+01  0.7534141E+05 -0.1540695E+01  0.1349821E+02  0.8320065E-02
  0.5384616E+00  0.2351019E+06  0.1450396E+01  0.2343341E+06  0.1458682E+01  0.7666909E+06  0.2966532E+01  0.2884566E+06 -0.1682901E+01  0.7665383E+08 -0.1712932E+00  0.2343342E+08  0.1458681E+01  0.1223645E+06 -0.1531343E+01  0.1237272E+06 -0.1563633E+01  0.3977775E+06 -0.4707370E-01  0.8293573E+05  0.1577960E+01  0.8200110E+05 -0.1531382E+01  0.1641618E+02 -0.1353761E-01
  0.5871795E+00  0.2602189E+06  0.1795644E+01  0.2588725E+06  0.1804897E+01  0.7317016E+06 -0.2985451E+01  0.3158108E+06 -0.1336677E+01  0.7314908E+08  0.1604673E+00  0.2588725E+08  0.1804897E+01  0.1314660E+06 -0.1543505E+01  0.1364358E+06 -0.1560137E+01  0.3887678E+06 -0.4435745E-01  0.9159717E+05  0.1581456E+01  0.8824086E+05 -0.1543503E+01  0.2078837E+02 -0.7886244E-02
  0.6358975E+00  0.2862544E+06  0.2164004E+01  0.2840826E+06  0.2173310E+01  0.6954538E+06 -0.2633753E+01  0.3429729E+06 -0.9682550E+00  0.6951678E+08  0.5127905E+00  0.2840824E+08  0.2173308E+01  0.1430721E+06 -0.1579051E+01  0.1493748E+06 -0.1557361E+01  0.3740060E+06 -0.2633830E-01  0.1003369E+06  0.1584225E+01  0.9607388E+05 -0.1579026E+01  0.2481548E+02  0.1231779E-01
  0.6846154E+00  0.3133160E+06  0.2559093E+01  0.3103139E+06  0.2567297E+01  0.6569244E+06 -0.2259529E+01  0.3703673E+06 -0.5742759E+00  0.6565386E+08  0.8877221E+00  0.3103136E+08  0.2567295E+01  0.1615550E+06 -0.1611422E+01  0.1630226E+06 -0.1555866E+01  0.3489730E+06 -0.7355794E-02  0.1097083E+06  0.1585707E+01  0.1086863E+06 -0.1611312E+01  0.2853963E+02 -0.8792461E-01
  0.7333333E+00  0.3412038E+06  0.2983256E+01  0.3377739E+06  0.2990193E+01  0.6172032E+06 -0.1859437E+01  0.3984834E+06 -0.1513311E+00  0.6166934E+08  0.1288623E+01  0.3377740E+08  0.2990192E+01  0.1863615E+06 -0.1598483E+01  0.1778078E+06 -0.1554591E+01  0.3167228E+06 -0.1590210E-01  0.1200308E+06  0.1586975E+01  0.1257437E+06 -0.1598419E+01  0.3445071E+02  0.1040341E-01
  0.7820513E+00  0.3702260E+06 -0.2845167E+01  0.3665140E+06 -0.2837337E+01  0.5764888E+06 -0.1431976E+01  0.4269727E+06  0.3043978E+00  0.5758270E+08  0.1717008E+01  0.3665140E+08 -0.2837340E+01  0.2079717E+06 -0.1530630E+01  0.1937119E+06 -0.1550263E+01  0.2905206E+06 -0.7249602E-01  0.1311497E+06  0.1591306E+01  0.1407381E+06 -0.1530715E+01  0.3898447E+02  0.3297218E-02
  0.8307692E+00  0.4016753E+06 -0.2355008E+01  0.3963111E+06 -0.2344855E+01  0.5364949E+06 -0.9757624E+00  0.4554418E+06  0.7968648E+00  0.5356354E+08  0.2174284E+01  0.3963110E+08 -0.2344857E+01  0.2140541E+06 -0.1454608E+01  0.2103678E+06 -0.1540229E+01  0.2831116E+06 -0.1373891E+00  0.1427863E+06  0.1601303E+01  0.1452290E+06 -0.1454948E+01  0.4652514E+02  0.5069106E-02
  0.8794872E+00  0.4353817E+06 -0.1819678E+01  0.4266529E+06 -0.1812424E+01  0.4986040E+06 -0.4810314E+00  0.4838911E+06  0.1329355E+01  0.4974908E+08  0.2670214E+01  0.4266528E+08 -0.1812427E+01  0.2067636E+06 -0.1474519E+01  0.2267592E+06 -0.1527180E+01  0.2842122E+06 -0.1282522E+00  0.1544065E+06  0.1614353E+01  0.1407820E+06 -0.1474802E+01  0.5339762E+02  0.3389737E-01
  0.9282051E+00  0.4658051E+06 -0.1235206E+01  0.4566419E+06 -0.1236927E+01  0.4586348E+06  0.5673670E-01  0.5106026E+06  0.1904982E+01  0.4572277E+08 -0.3073913E+01  0.4566417E+08 -0.1236931E+01  0.2253957E+06 -0.1612743E+01  0.2429468E+06 -0.1517552E+01  0.2639319E+06 -0.5291607E-01  0.1661923E+06  0.1623987E+01  0.1541425E+06 -0.1612515E+01  0.6028544E+02 -0.2463304E-01
  0.9769231E+00  0.4916684E+06 -0.6157402E+00  0.4862934E+06 -0.6154934E+00  0.4166654E+06  0.6238022E+00  0.5355295E+06  0.2526505E+01  0.4149351E+08 -0.2505462E+01  0.4862930E+08 -0.6154968E+00  0.2855027E+06 -0.1600875E+01  0.2612326E+06 -0.1510172E+01  0.2178624E+06 -0.4623352E-01  0.1796808E+06  0.1631274E+01  0.1962013E+06 -0.1600677E+01  0.7235764E+02 -0.1241713E+00
  0.1025641E+01  0.5253331E+06  0.4077018E-01  0.5148636E+06  0.5240782E-01  0.3827795E+06  0.1222457E+01  0.5598575E+06 -0.3088505E+01  0.3806470E+08 -0.1905261E+01  0.5148632E+08  0.5240396E-01  0.3154495E+06 -0.1408393E+01  0.2816233E+06 -0.1493001E+01  0.1937876E+06 -0.2116734E+00  0.1951443E+06  0.1648373E+01  0.2183372E+06 -0.1409011E+01  0.9278182E+02  0.2192609E-01
  0.1074359E+01  0.5600164E+06  0.7715849E+00  0.5401641E+06  0.7663041E+00  0.3522195E+06  0.1885482E+01  0.5794124E+06 -0.2374084E+01  0.3496051E+08 -0.1240706E+01  0.5401638E+08  0.7662989E+00  0.2671269E+06 -0.1329410E+01  0.2993795E+06 -0.1465530E+01  0.2098823E+06 -0.2515651E+00  0.2087605E+06  0.1675842E+01  0.1862734E+06 -0.1330321E+01  0.9461245E+02  0.1275803E+00
  0.1123077E+01  0.5695404E+06  0.1541850E+01  0.5611108E+06  0.1525859E+01  0.3137494E+06  0.2584387E+01  0.5930994E+06 -0.1614295E+01  0.3107521E+08 -0.5405011E+00  0.5611104E+08  0.1525854E+01  0.2852757E+06 -0.1610528E+01  0.3139414E+06 -0.1445364E+01  0.1925692E+06 -0.1017495E+00  0.2202827E+06  0.1695797E+01  0.2001482E+06 -0.1609984E+01  0.9399603E+02  0.4911227E-01
  0.1171795E+01  0.5934452E+06  0.2319904E+01  0.5771976E+06  0.2328563E+01  0.2867633E+06 -0.2992385E+01  0.6026818E+06 -0.8113284E+00  0.2833045E+08  0.1672361E+00  0.5771983E+08  0.2328557E+01  0.3940529E+06 -0.1481677E+01  0.3312324E+06 -0.1426860E+01  0.1417118E+06 -0.1593977E+00  0.2345140E+06  0.1714019E+01  0.2785346E+06 -0.1482029E+01  0.1367491E+03 -0.1108883E+00
  0.1220513E+01  0.6194072E+06 -0.3078349E+01  0.5877296E+06 -0.3112552E+01  0.2636137E+06 -0.2190396E+01  0.6066202E+06  0.3194593E-01  0.2596085E+08  0.9702613E+00  0.5877314E+08 -0.3112559E+01  0.3501498E+06 -0.1177804E+01  0.3468647E+06 -0.1391670E+01  0.1493040E+06 -0.3993278E+00  0.2483007E+06  0.1749308E+01  0.2503948E+06 -0.1179993E+01  0.1550085E+03  0.1895397E+00
  0.1269231E+01  0.5949218E+06 -0.2194118E+01  0.5919445E+06 -0.2233601E+01  0.2282681E+06 -0.1378851E+01  0.6039512E+06  0.9117138E+00  0.2241326E+08  0.1782361E+01  0.5919472E+08 -0.2233608E+01  0.2910018E+06 -0.1499081E+01  0.3546418E+06 -0.1362634E+01  0.1515151E+06 -0.2180363E+00  0.2567643E+06  0.1778175E+01  0.2109213E+06 -0.1498722E+01  0.1229281E+03  0.1431419E+00
  0.1317949E+01  0.6155240E+06 -0.1289808E+01  0.5908910E+06 -0.1319685E+01  0.2102366E+06 -0.5456444E+00  0.5951090E+06  0.1826124E+01  0.2056960E+08  0.2616277E+01  0.5908954E+08 -0.1319690E+01  0.4400163E+06 -0.1428443E+01  0.3637162E+06 -0.1340743E+01  0.1043628E+06 -0.2215041E+00  0.2663334E+06  0.1799576E+01  0.3215338E+06 -0.1428903E+01  0.1899192E+03 -0.2268091E+00
  0.1366667E+01  0.5818189E+06 -0.2794760E+00  0.5846321E+06 -0.3731669E+00  0.1834878E+06  0.3767682E+00  0.5837598E+06  0.2773422E+01  0.1788905E+08 -0.2745218E+01  0.5846374E+08 -0.3731678E+00  0.3623978E+06 -0.1073890E+01  0.3685057E+06 -0.1305550E+01  0.1128399E+06 -0.5041947E+00  0.2737008E+06  0.1834578E+01  0.2688576E+06 -0.1077682E+01  0.2147005E+03  0.2809481E+00
  0.1415385E+01  0.5553410E+06  0.6403618E+00  0.5746769E+06  0.6041778E+00  0.1597324E+06  0.1249110E+01  0.5685552E+06 -0.2530904E+01  0.1552371E+08 -0.1872500E+01  0.5746827E+08  0.6041839E+00  0.3194158E+06 -0.1484765E+01  0.3666996E+06 -0.1283353E+01  0.1087344E+06 -0.2874990E+00  0.2763412E+06  0.1856611E+01  0.2410497E+06 -0.1484087E+01  0.1516601E+03 -0.1160411E+00
  0.1464103E+01  0.5402031E+06  0.1694411E+01  0.5611536E+06  0.1611686E+01  0.1413873E+06  0.2230983E+01  0.5502920E+06 -0.1522769E+01  0.1368326E+08 -0.8912292E+00  0.5611576E+08  0.1611700E+01  0.4489622E+06 -0.1241631E+01  0.3652753E+06 -0.1263623E+01  0.7405825E+05 -0.4440731E+00  0.2796235E+06  0.1875983E+01  0.3426842E+06 -0.1243279E+01  0.2807640E+03 -0.3451919E-01
  0.1512820E+01  0.4889208E+06  0.2656237E+01  0.5450051E+06  0.2649422E+01  0.1183297E+06 -0.3137898E+01  0.5290551E+06 -0.4858304E+00  0.1141725E+08  0.2281010E-01  0.5450031E+08  0.2649445E+01  0.2975175E+06 -0.1093498E+01  0.3575500E+06 -0.1243264E+01  0.8747676E+05 -0.5515769E+00  0.2779274E+06  0.1895713E+01  0.2316034E+06 -0.1098799E+01  0.2059378E+03  0.4154286E+00
  0.1561538E+01  0.4938119E+06 -0.2569398E+01  0.5265772E+06 -0.2566579E+01  0.1087258E+06 -0.2137452E+01  0.5083468E+06  0.5814873E+00  0.1044199E+08  0.1022873E+01  0.5265658E+08 -0.2566550E+01  0.3778638E+06 -0.1427310E+01  0.3481489E+06 -0.1236403E+01  0.6780141E+05 -0.3728560E+00  0.2757371E+06  0.1902412E+01  0.2988306E+06 -0.1427087E+01  0.2693954E+03 -0.6357802E-01
  0.1610256E+01  0.4577661E+06 -0.1538984E+01  0.5069229E+06 -0.1469880E+01  0.9362513E+05 -0.1151168E+01  0.4867970E+06  0.1678139E+01  0.8960600E+07  0.2008717E+01  0.5068987E+08 -0.1469857E+01  0.3605105E+06 -0.1053006E+01  0.3370186E+06 -0.1228990E+01  0.6006863E+05 -0.6913257E+00  0.2720288E+06  0.1909723E+01  0.2901577E+06 -0.1058084E+01  0.3154522E+03  0.3819155E+00
  0.1658974E+01  0.4794462E+06 -0.4331788E+00  0.4862849E+06 -0.3432805E+00  0.8814519E+05 -0.9282691E-01  0.4643672E+06  0.2803027E+01  0.8385454E+07  0.3067092E+01  0.4862475E+08 -0.3432819E+00  0.2761500E+06 -0.1376315E+01  0.3228722E+06 -0.1233274E+01  0.6059562E+05 -0.5490280E+00  0.2655538E+06  0.1904858E+01  0.2278054E+06 -0.1377398E+01  0.2346389E+03  0.5373308E-01
  0.1707692E+01  0.4602276E+06  0.7115581E+00  0.4649264E+06  0.8124782E+00  0.7719348E+05  0.9983025E+00  0.4421901E+06 -0.2327441E+01  0.7302248E+07 -0.2125890E+01  0.4648831E+08  0.8124251E+00  0.3670783E+06 -0.1214111E+01  0.3092885E+06 -0.1242126E+01  0.4251613E+05 -0.6908782E+00  0.2596057E+06  0.1895680E+01  0.3069282E+06 -0.1217581E+01  0.4130582E+03  0.3161489E+00
  0.1756410E+01  0.4818446E+06  0.1912866E+01  0.4438868E+06  0.1998396E+01  0.7343324E+05  0.2151921E+01  0.4206072E+06 -0.1146153E+01  0.6897604E+07 -0.9731477E+00  0.4438539E+08  0.1998270E+01  0.2303567E+06 -0.1175571E+01  0.2928801E+06 -0.1258766E+01  0.4855538E+05 -0.7697608E+00  0.2508318E+06  0.1878432E+01  0.1981103E+06 -0.1182717E+01  0.1483974E+03  0.6251643E+00
  0.1805128E+01  0.4551609E+06 -0.3112713E+01  0.4238105E+06 -0.3067470E+01  0.6385429E+05 -0.2937996E+01  0.4017774E+06  0.6810990E-01  0.5958418E+07  0.2170330E+00  0.4238131E+08 -0.3067658E+01  0.3367650E+06 -0.1383851E+01  0.2785798E+06 -0.1284364E+01  0.3309977E+05 -0.6838998E+00  0.2440721E+06  0.1853217E+01  0.2937425E+06 -0.1385069E+01  0.5809611E+03  0.2149234E+00
  0.1853846E+01  0.4611889E+06 -0.1806004E+01  0.4049006E+06 -0.1815000E+01  0.5718954E+05 -0.1686826E+01  0.3841934E+06  0.1316199E+01  0.5278366E+07  0.1465283E+01  0.4049582E+08 -0.1815193E+01  0.2087496E+06 -0.1089617E+01  0.2614234E+06 -0.1314073E+01  0.3682426E+05 -0.9387880E+00  0.2342292E+06  0.1823938E+01  0.1876958E+06 -0.1101306E+01  0.2000498E+03  0.2328003E+01
  0.1902564E+01  0.4153484E+06 -0.4767728E+00  0.3858500E+06 -0.5233496E+00  0.4791683E+05 -0.4411467E+00  0.3669350E+06  0.2600898E+01  0.4394010E+07  0.2704529E+01  0.3859578E+08 -0.5234356E+00  0.3021922E+06 -0.1504127E+01  0.2480466E+06 -0.1355942E+01  0.2527939E+05 -0.7683613E+00  0.2273736E+06  0.1781849E+01  0.2753689E+06 -0.1503455E+01  0.9248875E+03  0.1880318E+00
  0.1951282E+01  0.3936137E+06  0.9273130E+00  0.3646048E+06  0.8077074E+00  0.4138447E+05  0.8820147E+00  0.3484449E+06 -0.2359469E+01  0.3760754E+07 -0.2263639E+01  0.3647280E+08  0.8078376E+00  0.1802536E+06 -0.1181668E+01  0.2307750E+06 -0.1401015E+01  0.2851735E+05 -0.1084798E+01  0.2165059E+06  0.1737455E+01  0.1700828E+06 -0.1193479E+01  0.7030674E+03 -0.3141270E+01
  0.2000000E+01  0.3384268E+06  0.2281610E+01  0.3396231E+06  0.2176668E+01  0.3316864E+05  0.2142763E+01  0.3269296E+06 -0.1001058E+01  0.2995998E+07 -0.1011535E+01  0.3396969E+08  0.2177049E+01  0.2706726E+06 -0.1578516E+01  0.2192397E+06 -0.1457294E+01  0.1910775E+05 -0.9138173E+00  0.2106511E+06  0.1681480E+01  0.2583579E+06 -0.1578253E+01  0.1605259E+04  0.4416719E+00
