VARIABLES="w (rad/s)"
"abs(F   1   1)" "angle(F   1   1)"
"abs(F   1   2)" "angle(F   1   2)"
"abs(F   1   3)" "angle(F   1   3)"
"abs(F   1   4)" "angle(F   1   4)"
"abs(F   1   5)" "angle(F   1   5)"
"abs(F   1   6)" "angle(F   1   6)"
"abs(F   2   7)" "angle(F   2   7)"
"abs(F   2   8)" "angle(F   2   8)"
"abs(F   2   9)" "angle(F   2   9)"
"abs(F   2  10)" "angle(F   2  10)"
"abs(F   2  11)" "angle(F   2  11)"
"abs(F   2  12)" "angle(F   2  12)"
Zone t="FKforce - beta =  45.000",I=    40,F=POINT
  0.1000000E+00  0.2478249E+05 -0.1064255E+01  0.2478243E+05 -0.1064256E+01  0.9764207E+06  0.5065404E+00  0.4105271E+05  0.2077320E+01  0.9764206E+08 -0.2634632E+01  0.2478231E+07 -0.1064265E+01  0.1239255E+05 -0.1570800E+01  0.1239255E+05 -0.1570798E+01  0.4882621E+06 -0.9033558E-10  0.1027706E+05  0.1570799E+01  0.1025868E+05 -0.1570791E+01  0.1660159E-01 -0.3139755E+01
  0.1487180E+00  0.3689452E+05 -0.8143512E+00  0.3689442E+05 -0.8143520E+00  0.9708796E+06  0.7564453E+00  0.6104423E+05  0.2327239E+01  0.9708794E+08 -0.2384519E+01  0.3689448E+07 -0.8143503E+00  0.1845164E+05 -0.1570797E+01  0.1845164E+05 -0.1570797E+01  0.4855548E+06  0.3417520E-09  0.1530400E+05  0.1570766E+01  0.1527670E+05 -0.1570797E+01  0.1174162E-01  0.6241881E-01
  0.1974359E+00  0.4905274E+05 -0.5607067E+00  0.4905291E+05 -0.5607088E+00  0.9631814E+06  0.1010089E+01  0.8102495E+05  0.2580888E+01  0.9631817E+08 -0.2130663E+01  0.4905274E+07 -0.5607116E+00  0.2453678E+05 -0.1570798E+01  0.2453678E+05 -0.1570796E+01  0.4817943E+06 -0.1607291E-08  0.2035519E+05  0.1570809E+01  0.2031905E+05 -0.1570796E+01  0.2154749E-01 -0.3065038E+01
  0.2461538E+00  0.6127413E+05 -0.3019940E+00  0.6127415E+05 -0.3019913E+00  0.9533415E+06  0.1268802E+01  0.1009949E+06  0.2839601E+01  0.9533421E+08 -0.1871733E+01  0.6127410E+07 -0.3019933E+00  0.3065751E+05 -0.1570796E+01  0.3065751E+05 -0.1570796E+01  0.4769888E+06 -0.9796883E-10  0.2543969E+05  0.1570795E+01  0.2539477E+05 -0.1570795E+01  0.1233348E-01 -0.2824537E+01
  0.2948718E+00  0.7357677E+05 -0.3679369E-01  0.7357684E+05 -0.3679409E-01  0.9413789E+06  0.1534003E+01  0.1209533E+06  0.3104804E+01  0.9413798E+08 -0.1606306E+01  0.7357684E+07 -0.3679444E-01  0.3682430E+05 -0.1570797E+01  0.3682430E+05 -0.1570796E+01  0.4711486E+06 -0.1623366E-08  0.3056720E+05  0.1570790E+01  0.3051357E+05 -0.1570794E+01  0.8789910E-02 -0.3127705E+01
  0.3435898E+00  0.8598070E+05  0.2364362E+00  0.8598073E+05  0.2364361E+00  0.9273188E+06  0.1807232E+01  0.1409018E+06 -0.2905156E+01  0.9273198E+08 -0.1332842E+01  0.8598086E+07  0.2364374E+00  0.4304861E+05 -0.1570796E+01  0.4304861E+05 -0.1570796E+01  0.4642880E+06 -0.8483259E-09  0.3574877E+05  0.1570804E+01  0.3568655E+05 -0.1570796E+01  0.6098826E-01  0.3021210E+01
  0.3923077E+00  0.9850747E+05  0.5193679E+00  0.9850763E+05  0.5193694E+00  0.9111948E+06  0.2090164E+01  0.1608432E+06 -0.2622224E+01  0.9111958E+08 -0.1049664E+01  0.9850755E+07  0.5193659E+00  0.4934303E+05 -0.1570796E+01  0.4934303E+05 -0.1570796E+01  0.4564236E+06 -0.6686240E-10  0.4099646E+05  0.1570801E+01  0.4092575E+05 -0.1570796E+01  0.8107270E-01  0.2108121E-01
  0.4410256E+00  0.1111811E+06  0.8138586E+00  0.1111813E+06  0.8138596E+00  0.8930455E+06  0.2384655E+01  0.1807837E+06 -0.2327735E+01  0.8930473E+08 -0.7549154E+00  0.1111812E+08  0.8138560E+00  0.5572183E+05 -0.1570797E+01  0.5572183E+05 -0.1570797E+01  0.4475771E+06 -0.1917674E-08  0.4632411E+05  0.1570803E+01  0.4624509E+05 -0.1570797E+01  0.2318211E-01 -0.2891505E+01
  0.4897436E+00  0.1240272E+06  0.1121953E+01  0.1240274E+06  0.1121953E+01  0.8729216E+06  0.2692749E+01  0.2007303E+06 -0.2019640E+01  0.8729239E+08 -0.4465459E+00  0.1240275E+08  0.1121953E+01  0.6220043E+05 -0.1570796E+01  0.6220043E+05 -0.1570796E+01  0.4377757E+06 -0.3241540E-08  0.5174703E+05  0.1570798E+01  0.5165985E+05 -0.1570796E+01  0.1660336E-01  0.3450022E+00
  0.5384616E+00  0.1370736E+06  0.1445937E+01  0.1370740E+06  0.1445936E+01  0.8508854E+06  0.3016733E+01  0.2206917E+06 -0.1695656E+01  0.8508882E+08 -0.1222678E+00  0.1370740E+08  0.1445934E+01  0.6879599E+05 -0.1570797E+01  0.6879599E+05 -0.1570797E+01  0.4270516E+06  0.4899551E-08  0.5728271E+05  0.1570800E+01  0.5718756E+05 -0.1570796E+01  0.3754689E-01  0.3587707E+00
  0.5871795E+00  0.1503481E+06  0.1788327E+01  0.1503487E+06  0.1788326E+01  0.8270109E+06 -0.2924061E+01  0.2406778E+06 -0.1353264E+01  0.8270146E+08  0.2204391E+00  0.1503487E+08  0.1788326E+01  0.7552688E+05 -0.1570796E+01  0.7552688E+05 -0.1570797E+01  0.4154459E+06  0.6702988E-09  0.6294996E+05  0.1570798E+01  0.6284709E+05 -0.1570796E+01  0.1258450E-01  0.1886412E+01
  0.6358975E+00  0.1638784E+06  0.2151903E+01  0.1638791E+06  0.2151904E+01  0.8013910E+06 -0.2560486E+01  0.2606965E+06 -0.9896876E+00  0.8013953E+08  0.5843579E+00  0.1638790E+08  0.2151901E+01  0.8241180E+05 -0.1570796E+01  0.8241179E+05 -0.1570796E+01  0.4030067E+06 -0.3312958E-10  0.6876955E+05  0.1570799E+01  0.6865914E+05 -0.1570796E+01  0.4638672E-02  0.1570796E+01
  0.6846154E+00  0.1776886E+06  0.2539695E+01  0.1776896E+06  0.2539694E+01  0.7741360E+06 -0.2172694E+01  0.2807523E+06 -0.6018997E+00  0.7741410E+08  0.9725221E+00  0.1776894E+08  0.2539691E+01  0.8946962E+05 -0.1570797E+01  0.8946962E+05 -0.1570796E+01  0.3897925E+06 -0.4531142E-08  0.7476303E+05  0.1570799E+01  0.7464543E+05 -0.1570797E+01  0.2439575E-01  0.2740643E+01
  0.7333333E+00  0.1917964E+06  0.2954940E+01  0.1917976E+06  0.2954941E+01  0.7453787E+06 -0.1757448E+01  0.3008425E+06 -0.1866529E+00  0.7453848E+08  0.1388178E+01  0.1917976E+08  0.2954939E+01  0.9671725E+05 -0.1570796E+01  0.9671725E+05 -0.1570797E+01  0.3758725E+06 -0.6140093E-08  0.8095213E+05  0.1570798E+01  0.8082755E+05 -0.1570796E+01  0.4008667E-01 -0.3092851E+01
  0.7820513E+00  0.2062068E+06 -0.2882180E+01  0.2062085E+06 -0.2882180E+01  0.7152744E+06 -0.1311384E+01  0.3209492E+06  0.2594122E+00  0.7152812E+08  0.1834692E+01  0.2062085E+08 -0.2882184E+01  0.1041675E+06 -0.1570796E+01  0.1041675E+06 -0.1570797E+01  0.3613280E+06 -0.1789485E-08  0.8735681E+05  0.1570794E+01  0.8722567E+05 -0.1570796E+01  0.3020346E-01 -0.2786606E+01
  0.8307692E+00  0.2209064E+06 -0.2401938E+01  0.2209085E+06 -0.2401938E+01  0.6840044E+06 -0.8311415E+00  0.3410341E+06  0.7396552E+00  0.6840131E+08  0.2315433E+01  0.2209086E+08 -0.2401941E+01  0.1118260E+06 -0.1570796E+01  0.1118260E+06 -0.1570796E+01  0.3462530E+06 -0.4186491E-08  0.9399342E+05  0.1570790E+01  0.9385609E+05 -0.1570796E+01  0.1896141E-01  0.2173084E+01
  0.8794872E+00  0.2358551E+06 -0.1884315E+01  0.2358581E+06 -0.1884315E+01  0.6517723E+06 -0.3135181E+00  0.3610288E+06  0.1257278E+01  0.6517822E+08  0.2833610E+01  0.2358580E+08 -0.1884319E+01  0.1196881E+06 -0.1570796E+01  0.1196881E+06 -0.1570796E+01  0.3307508E+06  0.3904073E-08  0.1008714E+06  0.1570802E+01  0.1007284E+06 -0.1570796E+01  0.1289099E-01 -0.2221873E+01
  0.9282051E+00  0.2509795E+06 -0.1326509E+01  0.2509830E+06 -0.1326508E+01  0.6188002E+06  0.2442880E+00  0.3808280E+06  0.1815085E+01  0.6188120E+08 -0.2891155E+01  0.2509830E+08 -0.1326513E+01  0.1277339E+06 -0.1570796E+01  0.1277339E+06 -0.1570796E+01  0.3149330E+06 -0.1392964E-08  0.1079909E+06  0.1570796E+01  0.1078428E+06 -0.1570796E+01  0.2315607E-01 -0.1135443E+01
  0.9769231E+00  0.2661647E+06 -0.7263343E+00  0.2661691E+06 -0.7263344E+00  0.5853247E+06  0.8444623E+00  0.4002811E+06  0.2415259E+01  0.5853383E+08 -0.2290297E+01  0.2661691E+08 -0.7263391E+00  0.1359271E+06 -0.1570796E+01  0.1359271E+06 -0.1570796E+01  0.2989180E+06  0.7274160E-08  0.1153386E+06  0.1570794E+01  0.1151861E+06 -0.1570796E+01  0.5258950E-02 -0.3805064E+00
  0.1025641E+01  0.2812548E+06 -0.8237983E-01  0.2812606E+06 -0.8237937E-01  0.5515860E+06  0.1488417E+01  0.4191922E+06  0.3059214E+01  0.5516018E+08 -0.1645581E+01  0.2812605E+08 -0.8238444E-01  0.1442112E+06 -0.1570796E+01  0.1442112E+06 -0.1570796E+01  0.2828215E+06  0.9185331E-08  0.1228878E+06  0.1570795E+01  0.1227316E+06 -0.1570796E+01  0.2872157E-01  0.2187093E+01
  0.1074359E+01  0.2960551E+06  0.6059371E+00  0.2960623E+06  0.6059376E+00  0.5178178E+06  0.2176734E+01  0.4373278E+06 -0.2535655E+01  0.5178362E+08 -0.9564191E+00  0.2960621E+08  0.6059313E+00  0.1525126E+06 -0.1570796E+01  0.1525126E+06 -0.1570796E+01  0.2667535E+06 -0.8837684E-08  0.1305961E+06  0.1570796E+01  0.1304371E+06 -0.1570796E+01  0.1945787E-01 -0.2835714E+01
  0.1123077E+01  0.3103398E+06  0.1338369E+01  0.3103488E+06  0.1338370E+01  0.4842411E+06  0.2909166E+01  0.4544231E+06 -0.1803223E+01  0.4842624E+08 -0.2230492E+00  0.3103486E+08  0.1338363E+01  0.1607420E+06 -0.1570796E+01  0.1607420E+06 -0.1570796E+01  0.2508149E+06 -0.6053267E-08  0.1384094E+06  0.1570795E+01  0.1382485E+06 -0.1570796E+01  0.2931315E-01 -0.2618314E+01
  0.1171795E+01  0.3238651E+06  0.2114037E+01  0.3238761E+06  0.2114038E+01  0.4510577E+06 -0.2598351E+01  0.4702006E+06 -0.1027554E+01  0.4510824E+08  0.5536587E+00  0.3238761E+08  0.2114032E+01  0.1688005E+06 -0.1570796E+01  0.1688005E+06 -0.1570796E+01  0.2350942E+06 -0.3180344E-08  0.1462622E+06  0.1570797E+01  0.1461008E+06 -0.1570796E+01  0.1968325E-01 -0.1978945E+01
  0.1220513E+01  0.3363838E+06  0.2931677E+01  0.3363971E+06  0.2931677E+01  0.4184477E+06 -0.1780712E+01  0.4843879E+06 -0.2099152E+00  0.4184755E+08  0.1372449E+01  0.3363972E+08  0.2931670E+01  0.1765858E+06 -0.1570796E+01  0.1765858E+06 -0.1570796E+01  0.2196661E+06  0.6425379E-08  0.1540854E+06  0.1570796E+01  0.1539243E+06 -0.1570796E+01  0.1408418E-01 -0.9827937E+00
  0.1269231E+01  0.3476563E+06 -0.2493373E+01  0.3476722E+06 -0.2493373E+01  0.3865725E+06 -0.9225766E+00  0.4967314E+06  0.6482191E+00  0.3866044E+08  0.2231857E+01  0.3476722E+08 -0.2493381E+01  0.1839975E+06 -0.1570796E+01  0.1839975E+06 -0.1570796E+01  0.2045943E+06  0.9117493E-08  0.1618062E+06  0.1570796E+01  0.1616468E+06 -0.1570796E+01  0.1310196E-01  0.2034444E+01
  0.1317949E+01  0.3574622E+06 -0.1596131E+01  0.3574813E+06 -0.1596129E+01  0.3555730E+06 -0.2533333E-01  0.5070082E+06  0.1545463E+01  0.3556090E+08  0.3130509E+01  0.3574814E+08 -0.1596138E+01  0.1909405E+06 -0.1570796E+01  0.1909405E+06 -0.1570796E+01  0.1899320E+06  0.3052851E-08  0.1693540E+06  0.1570795E+01  0.1691977E+06 -0.1570796E+01  0.2892010E-01 -0.1366778E+01
  0.1366667E+01  0.3656055E+06 -0.6610215E+00  0.3656281E+06 -0.6610204E+00  0.3255758E+06  0.9097756E+00  0.5150313E+06  0.2480572E+01  0.3256164E+08 -0.2216009E+01  0.3656280E+08 -0.6610295E+00  0.1973287E+06 -0.1570796E+01  0.1973287E+06 -0.1570796E+01  0.1757242E+06 -0.4146310E-08  0.1766608E+06  0.1570796E+01  0.1765088E+06 -0.1570796E+01  0.6550980E-02  0.1107149E+01
  0.1415385E+01  0.3719178E+06  0.3108964E+00  0.3719441E+06  0.3108973E+00  0.2966951E+06  0.1881694E+01  0.5206523E+06 -0.2830695E+01  0.2967407E+08 -0.1242363E+01  0.3719440E+08  0.3108885E+00  0.2030850E+06 -0.1570796E+01  0.2030850E+06 -0.1570796E+01  0.1620113E+06 -0.2072036E-08  0.1836612E+06  0.1570797E+01  0.1835145E+06 -0.1570796E+01  0.2231183E-01 -0.1975688E+01
  0.1464103E+01  0.3762609E+06  0.1318852E+01  0.3762913E+06  0.1318853E+01  0.2690316E+06  0.2889649E+01  0.5237607E+06 -0.1822740E+01  0.2690824E+08 -0.2324885E+00  0.3762914E+08  0.1318843E+01  0.2081429E+06 -0.1570796E+01  0.2081429E+06 -0.1570796E+01  0.1488267E+06 -0.3229608E-08  0.1902933E+06  0.1570797E+01  0.1901531E+06 -0.1570796E+01  0.9667476E-02  0.7853982E+00
  0.1512820E+01  0.3785262E+06  0.2362204E+01  0.3785611E+06  0.2362206E+01  0.2426755E+06 -0.2350183E+01  0.5242825E+06 -0.7793871E+00  0.2427320E+08  0.8129983E+00  0.3785610E+08  0.2362195E+01  0.2124440E+06 -0.1570796E+01  0.2124440E+06 -0.1570796E+01  0.1362014E+06 -0.2464684E-08  0.1964973E+06  0.1570797E+01  0.1963648E+06 -0.1570796E+01  0.1792730E-01 -0.5123895E+00
  0.1561538E+01  0.3786357E+06 -0.2842605E+01  0.3786752E+06 -0.2842604E+01  0.2177025E+06 -0.1271808E+01  0.5221755E+06  0.2989881E+00  0.2177652E+08  0.1893753E+01  0.3786750E+08 -0.2842614E+01  0.2159393E+06 -0.1570796E+01  0.2159393E+06 -0.1570796E+01  0.1241606E+06 -0.1195159E-07  0.2022155E+06  0.1570797E+01  0.2020916E+06 -0.1570796E+01  0.1757812E-01 -0.1570796E+01
  0.1610256E+01  0.3765420E+06 -0.1729547E+01  0.3765867E+06 -0.1729546E+01  0.1941772E+06 -0.1587494E+00  0.5174307E+06  0.1412047E+01  0.1942461E+08  0.3009470E+01  0.3765868E+08 -0.1729557E+01  0.2185883E+06 -0.1570796E+01  0.2185883E+06 -0.1570796E+01  0.1127262E+06  0.3032098E-07  0.2073914E+06  0.1570796E+01  0.2072770E+06 -0.1570796E+01  0.9959023E-02  0.1373401E+01
  0.1658974E+01  0.3722287E+06 -0.5819222E+00  0.3722785E+06 -0.5819210E+00  0.1721468E+06  0.9888758E+00  0.5100658E+06  0.2559672E+01  0.1722222E+08 -0.2123111E+01  0.3722784E+08 -0.5819322E+00  0.2203574E+06 -0.1570796E+01  0.2203574E+06 -0.1570796E+01  0.1019140E+06  0.4723736E-07  0.2119688E+06  0.1570796E+01  0.2118648E+06 -0.1570796E+01  0.1958610E-01  0.1495937E+01
  0.1707692E+01  0.3657100E+06  0.6000711E+00  0.3657649E+06  0.6000724E+00  0.1516461E+06  0.2170869E+01  0.5001271E+06 -0.2541520E+01  0.1517285E+08 -0.9377723E+00  0.3657649E+08  0.6000608E+00  0.2212202E+06 -0.1570796E+01  0.2212202E+06 -0.1570796E+01  0.9173658E+05 -0.4014855E-07  0.2158923E+06  0.1570796E+01  0.2157990E+06 -0.1570796E+01  0.4713874E-01 -0.1340892E+01
  0.1756410E+01  0.3570315E+06  0.1816370E+01  0.3570914E+06  0.1816372E+01  0.1326928E+06 -0.2896017E+01  0.4876866E+06 -0.1325221E+01  0.1327823E+08  0.2822941E+00  0.3570915E+08  0.1816360E+01  0.2211584E+06 -0.1570796E+01  0.2211584E+06 -0.1570796E+01  0.8220053E+05 -0.3939972E-07  0.2191067E+06  0.1570796E+01  0.2190245E+06 -0.1570796E+01  0.6511739E-01  0.1427839E+01
  0.1805128E+01  0.3462703E+06  0.3066960E+01  0.3463349E+06  0.3066961E+01  0.1152884E+06 -0.1645427E+01  0.4728411E+06 -0.7463133E-01  0.1153852E+08  0.1537136E+01  0.3463352E+08  0.3066949E+01  0.2201600E+06 -0.1570796E+01  0.2201600E+06 -0.1570796E+01  0.7330732E+05  0.2932288E-07  0.2215575E+06  0.1570797E+01  0.2214865E+06 -0.1570796E+01  0.1310196E-01  0.2034444E+01
  0.1853846E+01  0.3335339E+06 -0.1931385E+01  0.3336034E+06 -0.1931383E+01  0.9941917E+05 -0.3605868E+00  0.4557126E+06  0.1210209E+01  0.9952345E+07  0.2826789E+01  0.3336035E+08 -0.1931396E+01  0.2182194E+06 -0.1570796E+01  0.2182194E+06 -0.1570796E+01  0.6505381E+05  0.1465978E-09  0.2231904E+06  0.1570796E+01  0.2231311E+06 -0.1570796E+01  0.3019853E-01  0.1325818E+01
  0.1902564E+01  0.3189605E+06 -0.6122835E+00  0.3190343E+06 -0.6122819E+00  0.8505635E+05  0.9585146E+00  0.4364482E+06  0.2529311E+01  0.8516814E+07 -0.2131835E+01  0.3190344E+08 -0.6122938E+00  0.2153376E+06 -0.1570796E+01  0.2153376E+06 -0.1570796E+01  0.5743184E+05 -0.1447984E-07  0.2239542E+06  0.1570796E+01  0.2239062E+06 -0.1570796E+01  0.2762136E-02 -0.2356194E+01
  0.1951282E+01  0.3027186E+06  0.7410325E+00  0.3027961E+06  0.7410344E+00  0.7215765E+05  0.2311831E+01  0.4152211E+06 -0.2400558E+01  0.7227690E+07 -0.7723081E+00  0.3027962E+08  0.7410223E+00  0.2115236E+06 -0.1570796E+01  0.2115236E+06 -0.1570796E+01  0.5042918E+05  0.1928939E-07  0.2237982E+06  0.1570796E+01  0.2237612E+06 -0.1570796E+01  0.7428658E-01 -0.1613533E+01
  0.2000000E+01  0.2850032E+06  0.2128568E+01  0.2850835E+06  0.2128570E+01  0.6066738E+05 -0.2583819E+01  0.3922272E+06 -0.1013023E+01  0.6079394E+07  0.6223060E+00  0.2850835E+08  0.2128558E+01  0.2067914E+06 -0.1570796E+01  0.2067914E+06 -0.1570796E+01  0.4402905E+05  0.4332023E-09  0.2226762E+06  0.1570796E+01  0.2226497E+06 -0.1570796E+01  0.1096461E-01 -0.1772559E+01
