 VARIABLES="Time (s)"
"AddedMass    1" "IRF    1"
"AddedMass    2" "IRF    2"
"AddedMass    3" "IRF    3"
"AddedMass    4" "IRF    4"
"AddedMass    5" "IRF    5"
"AddedMass    6" "IRF    6"
"AddedMass    7" "IRF    7"
"AddedMass    8" "IRF    8"
"AddedMass    9" "IRF    9"
"AddedMass   10" "IRF   10"
"AddedMass   11" "IRF   11"
"AddedMass   12" "IRF   12"
Zone t="DoF    1",I=   100,F=POINT
  0.0000000E+00  0.2120159E+06  0.2625942E+06 -0.7373490E-05  0.4783437E-03 -0.2173325E+01  0.1991852E+02  0.5661135E-03  0.2239201E-03  0.1223832E+06  0.2656569E+06 -0.1111889E-01 -0.3524774E-01 -0.8159419E+03  0.8456967E+03 -0.1127401E-03  0.9704297E-03  0.6476812E+03 -0.3562175E+02  0.5844496E-03  0.9656219E-04 -0.8100140E+03  0.7778665E+03  0.7530601E-03 -0.1257165E-02
  0.1000000E+00  0.2120159E+06  0.2594404E+06 -0.7373490E-05  0.4729233E-03 -0.2173325E+01  0.1961373E+02  0.5661135E-03  0.2225890E-03  0.1223832E+06  0.2625007E+06 -0.1111889E-01 -0.3515072E-01 -0.8159419E+03  0.8288450E+03 -0.1127401E-03  0.9619445E-03  0.6476812E+03 -0.3470887E+02  0.5844496E-03  0.9933954E-04 -0.8100140E+03  0.7623591E+03  0.7530601E-03 -0.1239174E-02
  0.2000000E+00  0.2120159E+06  0.2500645E+06 -0.7373490E-05  0.4567713E-03 -0.2173325E+01  0.1870897E+02  0.5661135E-03  0.2186243E-03  0.1223832E+06  0.2531171E+06 -0.1111889E-01 -0.3485833E-01 -0.8159419E+03  0.7789516E+03 -0.1127401E-03  0.9366648E-03  0.6476812E+03 -0.3200314E+02  0.5844496E-03  0.1075216E-03 -0.8100140E+03  0.7164490E+03  0.7530601E-03 -0.1185730E-02
  0.3000000E+00  0.2120159E+06  0.2347205E+06 -0.7373490E-05  0.4302132E-03 -0.2173325E+01  0.1723269E+02  0.5661135E-03  0.2121099E-03  0.1223832E+06  0.2377592E+06 -0.1111889E-01 -0.3436677E-01 -0.8159419E+03  0.6979766E+03 -0.1127401E-03  0.8951164E-03  0.6476812E+03 -0.2760085E+02  0.5844496E-03  0.1206641E-03 -0.8100140E+03  0.6419418E+03  0.7530601E-03 -0.1098412E-02
  0.4000000E+00  0.2120159E+06  0.2138236E+06 -0.7373490E-05  0.3937851E-03 -0.2173325E+01  0.1523132E+02  0.5661135E-03  0.2031823E-03  0.1223832E+06  0.2168404E+06 -0.1111889E-01 -0.3366989E-01 -0.8159419E+03  0.5891044E+03 -0.1127401E-03  0.8381635E-03  0.6476812E+03 -0.2165902E+02  0.5844496E-03  0.1380471E-03 -0.8100140E+03  0.5417699E+03  0.7530601E-03 -0.9797936E-03
  0.5000000E+00  0.2120159E+06  0.1879377E+06 -0.7373490E-05  0.3482250E-03 -0.2173325E+01  0.1276776E+02  0.5661135E-03  0.1920242E-03  0.1223832E+06  0.1909222E+06 -0.1111889E-01 -0.3275960E-01 -0.8159419E+03  0.4566106E+03 -0.1127401E-03  0.7669909E-03  0.6476812E+03 -0.1438756E+02  0.5844496E-03  0.1587045E-03 -0.8100140E+03  0.4198766E+03  0.7530601E-03 -0.8333719E-03
  0.6000000E+00  0.2120159E+06  0.1577588E+06 -0.7373490E-05  0.2944589E-03 -0.2173325E+01  0.9919312E+01  0.5661135E-03  0.1788578E-03  0.1223832E+06  0.1606982E+06 -0.1111889E-01 -0.3162646E-01 -0.8159419E+03  0.3057069E+03 -0.1127401E-03  0.6830796E-03  0.6476812E+03 -0.6042734E+01  0.5844496E-03  0.1814636E-03 -0.8100140E+03  0.2810614E+03  0.7530601E-03 -0.6634585E-03
  0.7000000E+00  0.2120159E+06  0.1240953E+06 -0.7373490E-05  0.2335856E-03 -0.2173325E+01  0.6775186E+01  0.5661135E-03  0.1639348E-03  0.1223832E+06  0.1269733E+06 -0.1111889E-01 -0.3026018E-01 -0.8159419E+03  0.1423223E+03 -0.1127401E-03  0.5881765E-03  0.6476812E+03  0.3084467E+01  0.5844496E-03  0.2049948E-03 -0.8100140E+03  0.1307897E+03  0.7530601E-03 -0.4750511E-03
  0.8000000E+00  0.2120159E+06  0.8784348E+05 -0.7373490E-05  0.1668559E-03 -0.2173325E+01  0.3433713E+01  0.5661135E-03  0.1475274E-03  0.1223832E+06  0.9064062E+05 -0.1111889E-01 -0.2865039E-01 -0.8159419E+03 -0.2711680E+02 -0.1127401E-03  0.4842561E-03  0.6476812E+03  0.1267974E+02  0.5844496E-03  0.2278662E-03 -0.8100140E+03 -0.2501760E+02  0.7530601E-03 -0.2736816E-03
  0.9000000E+00  0.2120159E+06  0.4996209E+05 -0.7373490E-05  0.9565194E-04 -0.2173325E+01 -0.9753510E-03  0.5661135E-03  0.1299170E-03  0.1223832E+06  0.5265547E+05 -0.1111889E-01 -0.2678740E-01 -0.8159419E+03 -0.1959494E+03 -0.1127401E-03  0.3734815E-03  0.6476812E+03  0.2241796E+02  0.5844496E-03  0.2486045E-03 -0.8100140E+03 -0.1802226E+03  0.7530601E-03 -0.6525179E-04
  0.1000000E+01  0.2120159E+06  0.1144442E+05 -0.7373490E-05  0.2146021E-04 -0.2173325E+01 -0.3422117E+01  0.5661135E-03  0.1113841E-03  0.1223832E+06  0.1400790E+05 -0.1111889E-01 -0.2466307E-01 -0.8159419E+03 -0.3575336E+03 -0.1127401E-03  0.2581560E-03  0.6476812E+03  0.3197602E+02  0.5844496E-03  0.2657580E-03 -0.8100140E+03 -0.3287041E+03  0.7530601E-03  0.1441448E-03
  0.1100000E+01  0.2120159E+06 -0.2671017E+05 -0.7373490E-05 -0.5415473E-04 -0.2173325E+01 -0.6723886E+01  0.5661135E-03  0.9219790E-04  0.1223832E+06 -0.2430577E+05 -0.1111889E-01 -0.2227156E-01 -0.8159419E+03 -0.5055126E+03 -0.1127401E-03  0.1406745E-03  0.6476812E+03  0.4104637E+02  0.5844496E-03  0.2779595E-03 -0.8100140E+03 -0.4646061E+03  0.7530601E-03  0.3484060E-03
  0.1200000E+01  0.2120159E+06 -0.6352470E+05 -0.7373490E-05 -0.1295798E-03 -0.2173325E+01 -0.9804541E+01  0.5661135E-03  0.7260743E-04  0.1223832E+06 -0.6131114E+05 -0.1111889E-01 -0.1961020E-01 -0.8159419E+03 -0.6340642E+03 -0.1127401E-03  0.2347084E-04  0.6476812E+03  0.4934939E+02  0.5844496E-03  0.2839880E-03 -0.8100140E+03 -0.5825627E+03  0.7530601E-03  0.5416024E-03
  0.1300000E+01  0.2120159E+06 -0.9807210E+05 -0.7373490E-05 -0.2031844E-03 -0.2173325E+01 -0.1256993E+02  0.5661135E-03  0.5283367E-04  0.1223832E+06 -0.9608310E+05 -0.1111889E-01 -0.1668021E-01 -0.8159419E+03 -0.7381272E+03 -0.1127401E-03 -0.9103568E-04  0.6476812E+03  0.5664502E+02  0.5844496E-03  0.2828227E-03 -0.8100140E+03 -0.6779117E+03  0.7530601E-03  0.7181539E-03
  0.1400000E+01  0.2120159E+06 -0.1295009E+06 -0.7373490E-05 -0.2733518E-03 -0.2173325E+01 -0.1493620E+02  0.5661135E-03  0.3306490E-04  0.1223832E+06 -0.1277714E+06 -0.1111889E-01 -0.1348743E-01 -0.8159419E+03 -0.8136035E+03 -0.1127401E-03 -0.2004951E-03  0.6476812E+03  0.6274274E+02  0.5844496E-03  0.2736949E-03 -0.8100140E+03 -0.7468772E+03  0.7530601E-03  0.8729973E-03
  0.1500000E+01  0.2120159E+06 -0.1570587E+06 -0.7373490E-05 -0.3385121E-03 -0.2173325E+01 -0.1683250E+02  0.5661135E-03  0.1345164E-04  0.1223832E+06 -0.1556241E+06 -0.1111889E-01 -0.1004283E-01 -0.8159419E+03 -0.8575207E+03 -0.1127401E-03 -0.3026804E-03  0.6476812E+03  0.6750943E+02  0.5844496E-03  0.2561260E-03 -0.8100140E+03 -0.7867230E+03  0.7530601E-03  0.1001734E-02
  0.1600000E+01  0.2120159E+06 -0.1801119E+06 -0.7373490E-05 -0.3971734E-03 -0.2173325E+01 -0.1820329E+02  0.5661135E-03 -0.5893183E-05  0.1223832E+06 -0.1790069E+06 -0.1111889E-01 -0.6363047E-02 -0.8159419E+03 -0.8681507E+03 -0.1127401E-03 -0.3955386E-03  0.6476812E+03  0.7087579E+02  0.5844496E-03  0.2299588E-03 -0.8100140E+03 -0.7958558E+03  0.7530601E-03  0.1100759E-02
  0.1700000E+01  0.2120159E+06 -0.1981620E+06 -0.7373490E-05 -0.4479536E-03 -0.2173325E+01 -0.1900958E+02  0.5661135E-03 -0.2489347E-04  0.1223832E+06 -0.1974198E+06 -0.1111889E-01 -0.2470611E-02 -0.8159419E+03 -0.8450766E+03 -0.1127401E-03 -0.4772403E-03  0.6476812E+03  0.7283960E+02  0.5844496E-03  0.1953749E-03 -0.8100140E+03 -0.7738958E+03  0.7530601E-03  0.1167367E-02
  0.1800000E+01  0.2120159E+06 -0.2108577E+06 -0.7373490E-05 -0.4896111E-03 -0.2173325E+01 -0.1923055E+02  0.5661135E-03 -0.4350613E-04  0.1223832E+06 -0.2105088E+06 -0.1111889E-01  0.1605837E-02 -0.8159419E+03 -0.7892095E+03 -0.1127401E-03 -0.5462229E-03  0.6476812E+03  0.7346575E+02  0.5844496E-03  0.1529001E-03 -0.8100140E+03 -0.7216856E+03  0.7530601E-03  0.1199830E-02
  0.1900000E+01  0.2120159E+06 -0.2180023E+06 -0.7373490E-05 -0.5210717E-03 -0.2173325E+01 -0.1886382E+02  0.5661135E-03 -0.6171507E-04  0.1223832E+06 -0.2180734E+06 -0.1111889E-01  0.5831632E-02 -0.8159419E+03 -0.7027612E+03 -0.1127401E-03 -0.6012304E-03  0.6476812E+03  0.7288597E+02  0.5844496E-03  0.1033969E-03 -0.8100140E+03 -0.6412664E+03  0.7530601E-03  0.1197438E-02
  0.2000000E+01  0.2120159E+06 -0.2195565E+06 -0.7373490E-05 -0.5414555E-03 -0.2173325E+01 -0.1792530E+02  0.5661135E-03 -0.7952364E-04  0.1223832E+06 -0.2200695E+06 -0.1111889E-01  0.1016627E-01 -0.8159419E+03 -0.5891531E+03 -0.1127401E-03 -0.6413448E-03  0.6476812E+03  0.7129285E+02  0.5844496E-03  0.4804341E-04 -0.8100140E+03 -0.5357949E+03  0.7530601E-03  0.1160527E-02
  0.2100000E+01  0.2120159E+06 -0.2156362E+06 -0.7373490E-05 -0.5500991E-03 -0.2173325E+01 -0.1644875E+02  0.5661135E-03 -0.9694503E-04  0.1223832E+06 -0.2166072E+06 -0.1111889E-01  0.1456375E-01 -0.8159419E+03 -0.4528847E+03 -0.1127401E-03 -0.6660117E-03  0.6476812E+03  0.6893432E+02  0.5844496E-03 -0.1170025E-04 -0.8100140E+03 -0.4094218E+03  0.7530601E-03  0.1090449E-02
  0.2200000E+01  0.2120159E+06 -0.2065061E+06 -0.7373490E-05 -0.5465728E-03 -0.2173325E+01 -0.1448437E+02  0.5661135E-03 -0.1139921E-03  0.1223832E+06 -0.2079445E+06 -0.1111889E-01  0.1897313E-01 -0.8159419E+03 -0.2993625E+03 -0.1127401E-03 -0.6750546E-03  0.6476812E+03  0.6610394E+02  0.5844496E-03 -0.7413507E-04 -0.8100140E+03 -0.2671358E+03  0.7530601E-03  0.9895375E-03
  0.2300000E+01  0.2120159E+06 -0.1925685E+06 -0.7373490E-05 -0.5306987E-03 -0.2173325E+01 -0.1209704E+02  0.5661135E-03 -0.1306667E-03  0.1223832E+06 -0.1944763E+06 -0.1111889E-01  0.2333932E-01 -0.8159419E+03 -0.1346852E+03 -0.1127401E-03 -0.6686837E-03  0.6476812E+03  0.6312992E+02  0.5844496E-03 -0.1373801E-03 -0.8100140E+03 -0.1145592E+03  0.7530601E-03  0.8610243E-03
  0.2400000E+01  0.2120159E+06 -0.1743488E+06 -0.7373490E-05 -0.5025559E-03 -0.2173325E+01 -0.9364355E+01  0.5661135E-03 -0.1469491E-03  0.1223832E+06 -0.1767199E+06 -0.1111889E-01  0.2760381E-01 -0.8159419E+03  0.3459518E+02 -0.1127401E-03 -0.6474924E-03  0.6476812E+03  0.6036303E+02  0.5844496E-03 -0.1994341E-03 -0.8100140E+03  0.4226125E+02  0.7530601E-03  0.7089383E-03
  0.2500000E+01  0.2120159E+06 -0.1524771E+06 -0.7373490E-05 -0.4624895E-03 -0.2173325E+01 -0.6373689E+01  0.5661135E-03 -0.1627879E-03  0.1223832E+06 -0.1552968E+06 -0.1111889E-01  0.3170576E-01 -0.8159419E+03  0.2017280E+03 -0.1127401E-03 -0.6124467E-03  0.6476812E+03  0.5816349E+02  0.5844496E-03 -0.2582441E-03 -0.8100140E+03  0.1971003E+03  0.7530601E-03  0.5379808E-03
  0.2600000E+01  0.2120159E+06 -0.1276668E+06 -0.7373490E-05 -0.4111074E-03 -0.2173325E+01 -0.3219635E+01  0.5661135E-03 -0.1780926E-03  0.1223832E+06 -0.1309118E+06 -0.1111889E-01  0.3558299E-01 -0.8159419E+03  0.3600256E+03 -0.1127401E-03 -0.5648591E-03  0.6476812E+03  0.5688695E+02  0.5844496E-03 -0.3117795E-03 -0.8100140E+03  0.3437892E+03  0.7530601E-03  0.3533739E-03
  0.2700000E+01  0.2120159E+06 -0.1006925E+06 -0.7373490E-05 -0.3492752E-03 -0.2173325E+01 -0.7516243E-03  0.5661135E-03 -0.1927266E-03  0.1223832E+06 -0.1043306E+06 -0.1111889E-01  0.3917324E-01 -0.8159419E+03  0.5031271E+03 -0.1127401E-03 -0.5063618E-03  0.6476812E+03  0.5687175E+02  0.5844496E-03 -0.3581047E-03 -0.8100140E+03  0.4764587E+03  0.7530601E-03  0.1607048E-03
  0.2800000E+01  0.2120159E+06 -0.7236448E+05 -0.7373490E-05 -0.2781039E-03 -0.2173325E+01  0.3183605E+01  0.5661135E-03 -0.2065034E-03  0.1223832E+06 -0.7635502E+05 -0.1111889E-01  0.4241531E-01 -0.8159419E+03  0.6252578E+03 -0.1127401E-03 -0.4388617E-03  0.6476812E+03  0.5842359E+02  0.5844496E-03 -0.3954527E-03 -0.8100140E+03  0.5897849E+03  0.7530601E-03 -0.3425067E-04
  0.2900000E+01  0.2120159E+06 -0.4350455E+05 -0.7373490E-05 -0.1989322E-03 -0.2173325E+01  0.6236182E+01  0.5661135E-03 -0.2191867E-03  0.1223832E+06 -0.4779868E+05 -0.1111889E-01  0.4525035E-01 -0.8159419E+03  0.7214388E+03 -0.1127401E-03 -0.3644942E-03  0.6476812E+03  0.6180636E+02  0.5844496E-03 -0.4222915E-03 -0.8100140E+03  0.6791736E+03  0.7530601E-03 -0.2257020E-03
  0.3000000E+01  0.2120159E+06 -0.1492135E+05 -0.7373490E-05 -0.1133050E-03 -0.2173325E+01  0.9065273E+01  0.5661135E-03 -0.2304907E-03  0.1223832E+06 -0.1946274E+05 -0.1111889E-01  0.4762295E-01 -0.8159419E+03  0.7877053E+03 -0.1127401E-03 -0.2855654E-03  0.6476812E+03  0.6722868E+02  0.5844496E-03 -0.4373874E-03 -0.8100140E+03  0.7409691E+03  0.7530601E-03 -0.4080202E-03
  0.3100000E+01  0.2120159E+06  0.1261358E+05 -0.7373490E-05 -0.2294270E-04 -0.2173325E+01  0.1158742E+02  0.5661135E-03 -0.2400888E-03  0.1223832E+06  0.7887819E+04 -0.1111889E-01  0.4948259E-01 -0.8159419E+03  0.8212446E+03 -0.1127401E-03 -0.2044920E-03  0.6476812E+03  0.7483840E+02  0.5844496E-03 -0.4398566E-03 -0.8100140E+03  0.7725753E+03  0.7530601E-03 -0.5759089E-03
  0.3200000E+01  0.2120159E+06  0.3838716E+05 -0.7373490E-05  0.7028939E-04 -0.2173325E+01  0.1372919E+02  0.5661135E-03 -0.2476195E-03  0.1223832E+06  0.3354555E+05 -0.1111889E-01  0.5078450E-01 -0.8159419E+03  0.8205208E+03 -0.1127401E-03 -0.1237325E-03  0.6476812E+03  0.8471482E+02  0.5844496E-03 -0.4292075E-03 -0.8100140E+03  0.7725776E+03  0.7530601E-03 -0.7245612E-03
  0.3300000E+01  0.2120159E+06  0.6176458E+05 -0.7373490E-05  0.1644184E-03 -0.2173325E+01  0.1543064E+02  0.5661135E-03 -0.2527004E-03  0.1223832E+06  0.5687992E+05 -0.1111889E-01  0.5149082E-01 -0.8159419E+03  0.7853336E+03 -0.1127401E-03 -0.4572191E-04  0.6476812E+03  0.9686395E+02  0.5844496E-03 -0.4053700E-03 -0.8100140E+03  0.7407918E+03  0.7530601E-03 -0.8498033E-03
  0.3400000E+01  0.2120159E+06  0.8220571E+05 -0.7373490E-05  0.2574069E-03 -0.2173325E+01  0.1664597E+02  0.5661135E-03 -0.2549422E-03  0.1223832E+06  0.7735373E+05 -0.1111889E-01  0.5157152E-01 -0.8159419E+03  0.7168327E+03 -0.1127401E-03  0.2720221E-04  0.6476812E+03  0.1112198E+03  0.5844496E-03 -0.3687089E-03 -0.8100140E+03  0.6782799E+03  0.7530601E-03 -0.9482148E-03
  0.3500000E+01  0.2120159E+06  0.9927786E+05 -0.7373490E-05  0.3471916E-03 -0.2173325E+01  0.1734517E+02  0.5661135E-03 -0.2539663E-03  0.1223832E+06  0.9453577E+05 -0.1111889E-01  0.5100510E-01 -0.8159419E+03  0.6174646E+03 -0.1127401E-03  0.9286198E-04  0.6476812E+03  0.1276448E+03  0.5844496E-03 -0.3200272E-03 -0.8100140E+03  0.5873013E+03  0.7530601E-03 -0.1017227E-02
  0.3600000E+01  0.2120159E+06  0.1126656E+06 -0.7373490E-05  0.4317330E-03 -0.2173325E+01  0.1751456E+02  0.5661135E-03 -0.2494233E-03  0.1223832E+06  0.1081104E+06 -0.1111889E-01  0.4977936E-01 -0.8159419E+03  0.4908965E+03 -0.1127401E-03  0.1493090E-03  0.6476812E+03  0.1459337E+03  0.5844496E-03 -0.2605494E-03 -0.8100140E+03  0.4712436E+03  0.7530601E-03 -0.1055196E-02
  0.3700000E+01  0.2120159E+06  0.1221757E+06 -0.7373490E-05  0.5090579E-03 -0.2173325E+01  0.1715706E+02  0.5661135E-03 -0.2410121E-03  0.1223832E+06  0.1178827E+06 -0.1111889E-01  0.4789173E-01 -0.8159419E+03  0.3418662E+03 -0.1127401E-03  0.1948803E-03  0.6476812E+03  0.1658210E+03  0.5844496E-03 -0.1918933E-03 -0.8100140E+03  0.3344788E+03  0.7530601E-03 -0.1061438E-02
  0.3800000E+01  0.2120159E+06  0.1277389E+06 -0.7373490E-05  0.5773071E-03 -0.2173325E+01  0.1629167E+02  0.5661135E-03 -0.2285005E-03  0.1223832E+06  0.1237799E+06 -0.1111889E-01  0.4534959E-01 -0.8159419E+03  0.1759909E+03 -0.1127401E-03  0.2282527E-03  0.6476812E+03  0.1869911E+03  0.5844496E-03 -0.1160261E-03 -0.8100140E+03  0.1821968E+03  0.7530601E-03 -0.1036250E-02
  0.3900000E+01  0.2120159E+06  0.1294072E+06 -0.7373490E-05  0.6347779E-03 -0.2173325E+01  0.1495274E+02  0.5661135E-03 -0.2117439E-03  0.1223832E+06  0.1258490E+06 -0.1111889E-01  0.4217049E-01 -0.8159419E+03 -0.4234547E+00 -0.1127401E-03  0.2484840E-03  0.6476812E+03  0.2090863E+03  0.5844496E-03 -0.3521013E-04 -0.8100140E+03  0.2021501E+02  0.7530601E-03 -0.9808823E-03
  0.4000000E+01  0.2120159E+06  0.1273473E+06 -0.7373490E-05  0.6799680E-03 -0.2173325E+01  0.1318854E+02  0.5661135E-03 -0.1907020E-03  0.1223832E+06  0.1242504E+06 -0.1111889E-01  0.3838195E-01 -0.8159419E+03 -0.1806635E+03 -0.1127401E-03  0.2550471E-03  0.6476812E+03  0.2317222E+03  0.5844496E-03  0.4806641E-04 -0.8100140E+03 -0.1452639E+03  0.7530601E-03 -0.8974962E-03
  0.4100000E+01  0.2120159E+06  0.1218314E+06 -0.7373490E-05  0.7116119E-03 -0.2173325E+01  0.1105944E+02  0.5661135E-03 -0.1654537E-03  0.1223832E+06  0.1192483E+06 -0.1111889E-01  0.3402127E-01 -0.8159419E+03 -0.3578430E+03 -0.1127401E-03  0.2478500E-03  0.6476812E+03  0.2545005E+03  0.5844496E-03  0.1311641E-03 -0.8100140E+03 -0.3078826E+03  0.7530601E-03 -0.7890852E-03
  0.4200000E+01  0.2120159E+06  0.1132241E+06 -0.7373490E-05  0.7287172E-03 -0.2173325E+01  0.8635913E+01  0.5661135E-03 -0.1362072E-03  0.1223832E+06  0.1111980E+06 -0.1111889E-01  0.2913507E-01 -0.8159419E+03 -0.5251776E+03 -0.1127401E-03  0.2272439E-03  0.6476812E+03  0.2770211E+03  0.5844496E-03  0.2113756E-03 -0.8100140E+03 -0.4613763E+03  0.7530601E-03 -0.6593735E-03
  0.4300000E+01  0.2120159E+06  0.1019671E+06 -0.7373490E-05  0.7305912E-03 -0.2173325E+01  0.5996083E+01  0.5661135E-03 -0.1033089E-03  0.1223832E+06  0.1005313E+06 -0.1111889E-01  0.2377893E-01 -0.8159419E+03 -0.6762559E+03 -0.1127401E-03  0.1940190E-03  0.6476812E+03  0.2988985E+03  0.5844496E-03  0.2860105E-03 -0.8100140E+03 -0.5998246E+03  0.7530601E-03 -0.5126959E-03
  0.4400000E+01  0.2120159E+06  0.8856224E+05 -0.7373490E-05  0.7168644E-03 -0.2173325E+01  0.3223051E+01  0.5661135E-03 -0.6724257E-04  0.1223832E+06  0.8773887E+05 -0.1111889E-01  0.1801640E-01 -0.8159419E+03 -0.8052884E+03 -0.1127401E-03  0.1493832E-03  0.6476812E+03  0.3197724E+03  0.5844496E-03  0.3524854E-03 -0.8100140E+03 -0.7178821E+03  0.7530601E-03 -0.3538520E-03
  0.4500000E+01  0.2120159E+06  0.7355249E+05 -0.7373490E-05  0.6875062E-03 -0.2173325E+01  0.4022751E+00  0.5661135E-03 -0.2862857E-04  0.1223832E+06  0.7335209E+05 -0.1111889E-01  0.1191827E-01 -0.8159419E+03 -0.9073291E+03 -0.1127401E-03  0.9493295E-04  0.6476812E+03  0.3393220E+03  0.5844496E-03  0.4084086E-03 -0.8100140E+03 -0.8109833E+03  0.7530601E-03 -0.1879549E-03
  0.4600000E+01  0.2120159E+06  0.5750328E+05 -0.7373490E-05  0.6428323E-03 -0.2173325E+01 -0.2380740E+01  0.5661135E-03  0.1178693E-04  0.1223832E+06  0.5792439E+05 -0.1111889E-01  0.5561604E-02 -0.8159419E+03 -0.9784781E+03 -0.1127401E-03  0.3260793E-04  0.6476812E+03  0.3572751E+03  0.5844496E-03  0.4516600E-03 -0.8100140E+03 -0.8755280E+03  0.7530601E-03 -0.2026848E-04
  0.4700000E+01  0.2120159E+06  0.4098264E+05 -0.7373490E-05  0.5835043E-03 -0.2173325E+01 -0.5043736E+01  0.5661135E-03  0.5314503E-04  0.1223832E+06  0.4201182E+05 -0.1111889E-01 -0.9713051E-03 -0.8159419E+03 -0.1016029E+04 -0.1127401E-03 -0.3536719E-04  0.6476812E+03  0.3734185E+03  0.5844496E-03  0.4804670E-03 -0.8100140E+03 -0.9090210E+03  0.7530601E-03  0.1439623E-03
  0.4800000E+01  0.2120159E+06  0.2454342E+05 -0.7373490E-05  0.5105237E-03 -0.2173325E+01 -0.7509726E+01  0.5661135E-03  0.9449424E-04  0.1223832E+06  0.2615537E+05 -0.1111889E-01 -0.7594087E-02 -0.8159419E+03 -0.1018576E+04 -0.1127401E-03 -0.1065458E-03  0.6476812E+03  0.3876001E+03  0.5844496E-03  0.4934649E-03 -0.8100140E+03 -0.9101696E+03  0.7530601E-03  0.2996677E-03
  0.4900000E+01  0.2120159E+06  0.8705131E+04 -0.7373490E-05  0.4252132E-03 -0.2173325E+01 -0.9709539E+01  0.5661135E-03  0.1348156E-03  0.1223832E+06  0.1086316E+05 -0.1111889E-01 -0.1421756E-01 -0.8159419E+03 -0.9860814E+03 -0.1127401E-03 -0.1783355E-03  0.6476812E+03  0.3997372E+03  0.5844496E-03  0.4897512E-03 -0.8100140E+03 -0.8789463E+03  0.7530601E-03  0.4421198E-03
  0.5000000E+01  0.2120159E+06 -0.6061387E+04 -0.7373490E-05  0.3291942E-03 -0.2173325E+01 -0.1158343E+02  0.5661135E-03  0.1730510E-03  0.1223832E+06 -0.3404534E+04 -0.1111889E-01 -0.2075092E-01 -0.8159419E+03 -0.9198629E+03 -0.1127401E-03 -0.2480802E-03  0.6476812E+03  0.4098153E+03  0.5844496E-03  0.4689206E-03 -0.8100140E+03 -0.8165793E+03  0.7530601E-03  0.5670702E-03
  0.5100000E+01  0.2120159E+06 -0.1934715E+05 -0.7373490E-05  0.2243546E-03 -0.2173325E+01 -0.1308236E+02  0.5661135E-03  0.2081370E-03  0.1223832E+06 -0.1624847E+05 -0.1111889E-01 -0.2710295E-01 -0.8159419E+03 -0.8225526E+03 -0.1127401E-03 -0.3131408E-03  0.6476812E+03  0.4178847E+03  0.5844496E-03  0.4310889E-03 -0.8100140E+03 -0.7255118E+03  0.7530601E-03  0.6708828E-03
  0.5200000E+01  0.2120159E+06 -0.3081602E+05 -0.7373490E-05  0.1128103E-03 -0.2173325E+01 -0.1417044E+02  0.5661135E-03  0.2390382E-03  0.1223832E+06 -0.2734096E+05 -0.1111889E-01 -0.3318355E-01 -0.8159419E+03 -0.6979949E+03 -0.1127401E-03 -0.3709831E-03  0.6476812E+03  0.4240572E+03  0.5844496E-03  0.3768951E-03 -0.8100140E+03 -0.6093101E+03  0.7530601E-03  0.7506366E-03
  0.5300000E+01  0.2120159E+06 -0.4021241E+05 -0.7373490E-05 -0.3138182E-05 -0.2173325E+01 -0.1482416E+02  0.5661135E-03  0.2647850E-03  0.1223832E+06 -0.3643345E+05 -0.1111889E-01 -0.3890462E-01 -0.8159419E+03 -0.5510907E+03 -0.1127401E-03 -0.4192589E-03  0.6476812E+03  0.4285005E+03  0.5844496E-03  0.3074938E-03 -0.8100140E+03 -0.4725224E+03  0.7530601E-03  0.8042139E-03
  0.5400000E+01  0.2120159E+06 -0.4736625E+05 -0.7373490E-05 -0.1210573E-03 -0.2173325E+01 -0.1503387E+02  0.5661135E-03  0.2845088E-03  0.1223832E+06 -0.4336145E+05 -0.1111889E-01 -0.4418164E-01 -0.8159419E+03 -0.3876124E+03 -0.1127401E-03 -0.4558884E-03  0.6476812E+03  0.4314242E+03  0.5844496E-03  0.2245239E-03 -0.8100140E+03 -0.3205027E+03  0.7530601E-03  0.8303575E-03
  0.5500000E+01  0.2120159E+06 -0.5219463E+05 -0.7373490E-05 -0.2384342E-03 -0.2173325E+01 -0.1480311E+02  0.5661135E-03  0.2974785E-03  0.1223832E+06 -0.4804581E+05 -0.1111889E-01 -0.4893481E-01 -0.8159419E+03 -0.2139715E+03 -0.1127401E-03 -0.4791294E-03  0.6476812E+03  0.4330742E+03  0.5844496E-03  0.1300679E-03 -0.8100140E+03 -0.1592004E+03  0.7530601E-03  0.8286998E-03
  0.5600000E+01  0.2120159E+06 -0.5470025E+05 -0.7373490E-05 -0.3527309E-03 -0.2173325E+01 -0.1414834E+02  0.5661135E-03  0.3031311E-03  0.1223832E+06 -0.5049131E+05 -0.1111889E-01 -0.5309008E-01 -0.8159419E+03 -0.3697589E+02 -0.1127401E-03 -0.4876416E-03  0.6476812E+03  0.4337144E+03  0.5844496E-03  0.2659034E-04 -0.8100140E+03  0.5066944E+01  0.7530601E-03  0.7997644E-03
  0.5700000E+01  0.2120159E+06 -0.5496741E+05 -0.7373490E-05 -0.4614462E-03 -0.2173325E+01 -0.1309781E+02  0.5661135E-03  0.3011011E-03  0.1223832E+06 -0.5078248E+05 -0.1111889E-01 -0.5658034E-01 -0.8159419E+03  0.1364567E+03 -0.1127401E-03 -0.4805361E-03  0.6476812E+03  0.4336168E+03  0.5844496E-03 -0.8313036E-04 -0.8100140E+03  0.1658737E+03  0.7530601E-03  0.7449402E-03
  0.5800000E+01  0.2120159E+06 -0.5315477E+05 -0.7373490E-05 -0.5621689E-03 -0.2173325E+01 -0.1169087E+02  0.5661135E-03  0.2912427E-03  0.1223832E+06 -0.4907635E+05 -0.1111889E-01 -0.5934648E-01 -0.8159419E+03  0.2995578E+03 -0.1127401E-03 -0.4574141E-03  0.6476812E+03  0.4330429E+03  0.5844496E-03 -0.1960841E-03 -0.8100140E+03  0.3169323E+03  0.7530601E-03  0.6664282E-03
  0.5900000E+01  0.2120159E+06 -0.4948627E+05 -0.7373490E-05 -0.6526395E-03 -0.2173325E+01 -0.9975776E+01  0.5661135E-03  0.2736467E-03  0.1223832E+06 -0.4559352E+05 -0.1111889E-01 -0.6133819E-01 -0.8159419E+03  0.4459718E+03 -0.1127401E-03 -0.4183872E-03  0.6476812E+03  0.4322368E+03  0.5844496E-03 -0.3091200E-03 -0.8100140E+03  0.4523354E+03  0.7530601E-03  0.5671592E-03
  0.6000000E+01  0.2120159E+06 -0.4423975E+05 -0.7373490E-05 -0.7308004E-03 -0.2173325E+01 -0.8008682E+01  0.5661135E-03  0.2486506E-03  0.1223832E+06 -0.4060668E+05 -0.1111889E-01 -0.6251507E-01 -0.8159419E+03  0.5700349E+03 -0.1127401E-03 -0.3640846E-03  0.6476812E+03  0.4314020E+03  0.5844496E-03 -0.4190397E-03 -0.8100140E+03  0.5668091E+03  0.7530601E-03  0.4506962E-03
  0.6100000E+01  0.2120159E+06 -0.3773452E+05 -0.7373490E-05 -0.7948471E-03 -0.2173325E+01 -0.5850768E+01  0.5661135E-03  0.2168367E-03  0.1223832E+06 -0.3442856E+05 -0.1111889E-01 -0.6284706E-01 -0.8159419E+03  0.6669731E+03 -0.1127401E-03 -0.2956415E-03  0.6476812E+03  0.4306979E+03  0.5844496E-03 -0.5226949E-03 -0.8100140E+03  0.6559055E+03  0.7530601E-03  0.3211103E-03
  0.6200000E+01  0.2120159E+06 -0.3031742E+05 -0.7373490E-05 -0.8432709E-03 -0.2173325E+01 -0.3567358E+01  0.5661135E-03  0.1790275E-03  0.1223832E+06 -0.2739782E+05 -0.1111889E-01 -0.6231524E-01 -0.8159419E+03  0.7331094E+03 -0.1127401E-03 -0.2146707E-03  0.6476812E+03  0.4302243E+03  0.5844496E-03 -0.6170842E-03 -0.8100140E+03  0.7161855E+03  0.7530601E-03  0.1828473E-03
  0.6300000E+01  0.2120159E+06 -0.2234914E+05 -0.7373490E-05 -0.8748994E-03 -0.2173325E+01 -0.1224810E+01  0.5661135E-03  0.1362692E-03  0.1223832E+06 -0.1986594E+05 -0.1111889E-01 -0.6091240E-01 -0.8159419E+03  0.7660154E+03 -0.1127401E-03 -0.1232214E-03  0.6476812E+03  0.4300142E+03  0.5844496E-03 -0.6994425E-03 -0.8100140E+03  0.7453697E+03  0.7530601E-03  0.4058021E-04
  0.6400000E+01  0.2120159E+06 -0.1419002E+05 -0.7373490E-05 -0.8889220E-03 -0.2173325E+01  0.1110290E+01  0.5661135E-03  0.8980550E-04  0.1223832E+06 -0.1218281E+05 -0.1111889E-01 -0.5864321E-01 -0.8159419E+03  0.7646081E+03 -0.1127401E-03 -0.2371609E-04  0.6476812E+03  0.4300294E+03  0.5844496E-03 -0.7673295E-03 -0.8100140E+03  0.7424205E+03  0.7530601E-03 -0.1009399E-03
  0.6500000E+01  0.2120159E+06 -0.6186710E+04 -0.7373490E-05 -0.8849147E-03 -0.2173325E+01  0.3374701E+01  0.5661135E-03  0.4104679E-04  0.1223832E+06 -0.4684134E+04 -0.1111889E-01 -0.5552477E-01 -0.8159419E+03  0.7291949E+03 -0.1127401E-03  0.8111813E-04  0.6476812E+03  0.4301562E+03  0.5844496E-03 -0.8187025E-03 -0.8100140E+03  0.7075920E+03  0.7530601E-03 -0.2370437E-03
  0.6600000E+01  0.2120159E+06  0.1340101E+04 -0.7373490E-05 -0.8628510E-03 -0.2173325E+01  0.5508272E+01  0.5661135E-03 -0.8470841E-05  0.1223832E+06  0.2321047E+04 -0.1111889E-01 -0.5158632E-01 -0.8159419E+03  0.6614712E+03 -0.1127401E-03  0.1883325E-03  0.6476812E+03  0.4302046E+03  0.5844496E-03 -0.8519813E-03 -0.8100140E+03  0.6424230E+03  0.7530601E-03 -0.3632826E-03
  0.6700000E+01  0.2120159E+06  0.8106670E+04 -0.7373490E-05 -0.8231042E-03 -0.2173325E+01  0.7457361E+01  0.5661135E-03 -0.5713121E-04  0.1223832E+06  0.8560748E+04 -0.1111889E-01 -0.4686951E-01 -0.8159419E+03  0.5644692E+03 -0.1127401E-03  0.2948536E-03  0.6476812E+03  0.4299121E+03  0.5844496E-03 -0.8660959E-03 -0.8100140E+03  0.5496924E+03  0.7530601E-03 -0.4755770E-03
  0.6800000E+01  0.2120159E+06  0.1387502E+05 -0.7373490E-05 -0.7664414E-03 -0.2173325E+01  0.9174700E+01  0.5661135E-03 -0.1032871E-03  0.1223832E+06  0.1380878E+05 -0.1111889E-01 -0.4142814E-01 -0.8159419E+03  0.4424290E+03 -0.1127401E-03  0.3975750E-03  0.6476812E+03  0.4289512E+03  0.5844496E-03 -0.8605193E-03 -0.8100140E+03  0.4333046E+03  0.7530601E-03 -0.5703374E-03
  0.6900000E+01  0.2120159E+06  0.1846024E+05 -0.7373490E-05 -0.6940060E-03 -0.2173325E+01  0.1062203E+02  0.5661135E-03 -0.1453178E-03  0.1223832E+06  0.1789156E+05 -0.1111889E-01 -0.3532755E-01 -0.8159419E+03  0.3006360E+03 -0.1127401E-03  0.4934617E-03  0.6476812E+03  0.4269359E+03  0.5844496E-03 -0.8352856E-03 -0.8100140E+03  0.2981353E+03  0.7530601E-03 -0.6445755E-03
  0.7000000E+01  0.2120159E+06  0.2173510E+05 -0.7373490E-05 -0.6072932E-03 -0.2173325E+01  0.1176866E+02  0.5661135E-03 -0.1816809E-03  0.1223832E+06  0.2069278E+05 -0.1111889E-01 -0.2864425E-01 -0.8159419E+03  0.1452331E+03 -0.1127401E-03  0.5796476E-03  0.6476812E+03  0.4234326E+03  0.5844496E-03 -0.7909882E-03 -0.8100140E+03  0.1498602E+03  0.7530601E-03 -0.6959948E-03
  0.7100000E+01  0.2120159E+06  0.2363227E+05 -0.7373490E-05 -0.5081157E-03 -0.2173325E+01  0.1259459E+02  0.5661135E-03 -0.2109687E-03  0.1223832E+06  0.2215498E+05 -0.1111889E-01 -0.2146520E-01 -0.8159419E+03 -0.1703370E+02 -0.1127401E-03  0.6535339E-03  0.6476812E+03  0.4179748E+03  0.5844496E-03 -0.7287592E-03 -0.8100140E+03 -0.5278652E+01  0.7530601E-03 -0.7230531E-03
  0.7200000E+01  0.2120159E+06  0.2414461E+05 -0.7373490E-05 -0.3985605E-03 -0.2173325E+01  0.1308796E+02  0.5661135E-03 -0.2319608E-03  0.1223832E+06  0.2227999E+05 -0.1111889E-01 -0.1388662E-01 -0.8159419E+03 -0.1790680E+03 -0.1127401E-03  0.7128743E-03  0.6476812E+03  0.4100757E+03  0.5844496E-03 -0.6502373E-03 -0.8100140E+03 -0.1607082E+03  0.7530601E-03 -0.7250060E-03
  0.7300000E+01  0.2120159E+06  0.2332270E+05 -0.7373490E-05 -0.2809437E-03 -0.2173325E+01  0.1324720E+02  0.5661135E-03 -0.2436714E-03  0.1223832E+06  0.2112602E+05 -0.1111889E-01 -0.6013411E-02 -0.8159419E+03 -0.3337050E+03 -0.1127401E-03  0.7558524E-03  0.6476812E+03  0.3992484E+03  0.5844496E-03 -0.5575165E-03 -0.8100140E+03 -0.3097840E+03  0.7530601E-03 -0.7019193E-03
  0.7400000E+01  0.2120159E+06  0.2127049E+05 -0.7373490E-05 -0.1577530E-03 -0.2173325E+01  0.1307936E+02  0.5661135E-03 -0.2453930E-03  0.1223832E+06  0.1880317E+05 -0.1111889E-01  0.2042630E-02 -0.8159419E+03 -0.4740074E+03 -0.1127401E-03  0.7811517E-03  0.6476812E+03  0.3850164E+03  0.5844496E-03 -0.4530775E-03 -0.8100140E+03 -0.4460623E+03  0.7530601E-03 -0.6546598E-03
  0.7500000E+01  0.2120159E+06  0.1813906E+05 -0.7373490E-05 -0.3159110E-04 -0.2173325E+01  0.1259999E+02  0.5661135E-03 -0.2367294E-03  0.1223832E+06  0.1546722E+05 -0.1111889E-01  0.1016405E-01 -0.8159419E+03 -0.5935165E+03 -0.1127401E-03  0.7879962E-03  0.6476812E+03  0.3669368E+03  0.5844496E-03 -0.3397159E-03 -0.8100140E+03 -0.5635383E+03  0.7530601E-03 -0.5848560E-03
  0.7600000E+01  0.2120159E+06  0.1411865E+05 -0.7373490E-05  0.9488445E-04 -0.2173325E+01  0.1183185E+02  0.5661135E-03 -0.2176215E-03  0.1223832E+06  0.1131132E+05 -0.1111889E-01  0.1822924E-01 -0.8159419E+03 -0.6865348E+03 -0.1127401E-03  0.7761901E-03  0.6476812E+03  0.3446093E+03  0.5844496E-03 -0.2204530E-03 -0.8100140E+03 -0.6569017E+03  0.7530601E-03 -0.4948386E-03
  0.7700000E+01  0.2120159E+06  0.9429611E+04 -0.7373490E-05  0.2190243E-03 -0.2173325E+01  0.1080485E+02  0.5661135E-03 -0.1883609E-03  0.1223832E+06  0.6557072E+04 -0.1111889E-01  0.2611439E-01 -0.8159419E+03 -0.7483296E+03 -0.1127401E-03  0.7461220E-03  0.6476812E+03  0.3176940E+03  0.5844496E-03 -0.9844366E-04 -0.8100140E+03 -0.7217310E+03  0.7530601E-03 -0.3875563E-03