VARIABLES="w (rad/s)"
"A   1   1" "B   1   1"
"A   1   2" "B   1   2"
"A   1   3" "B   1   3"
"A   1   4" "B   1   4"
"A   1   5" "B   1   5"
"A   1   6" "B   1   6"
"A   2   1" "B   2   1"
"A   2   2" "B   2   2"
"A   2   3" "B   2   3"
"A   2   4" "B   2   4"
"A   2   5" "B   2   5"
"A   2   6" "B   2   6"
Zone t="Motion of body    1 in DoF   1",I=    40,F=POINT
  0.1000000E+00  0.3294890E+06  0.2245384E+02 -0.5340576E-03  0.1564622E-06  0.3911095E+01 -0.6398535E+00  0.6103516E-03 -0.1221895E-05  0.2417138E+06  0.9292124E+02  0.6192017E+00  0.2205372E-05 -0.3699492E+03  0.9712002E+01 -0.1292229E-02  0.2264977E-05  0.4342082E+04  0.1249059E+03 -0.3910065E-03  0.4909933E-04 -0.2556233E+03  0.6501545E+01 -0.6389618E-03 -0.1788139E-04
  0.1487180E+00  0.3304406E+06  0.7533146E+02 -0.6156132E-03  0.4172325E-06  0.1289099E+02 -0.1063738E+01  0.1436431E-02 -0.1192093E-06  0.2422113E+06  0.2033018E+03  0.6935909E-01 -0.1096725E-04 -0.3738179E+03  0.2331026E+02  0.1154275E-03  0.8606911E-04  0.4161630E+04  0.3840078E+03  0.1251266E-02 -0.9769201E-04 -0.2445505E+03  0.1554209E+02  0.5130110E-03  0.2479553E-04
  0.1974359E+00  0.3322160E+06  0.1814120E+03 -0.6182782E-03 -0.2622604E-05  0.2574831E+02  0.4393266E+00  0.4637087E-03 -0.3099442E-05  0.2432202E+06  0.1889301E+03  0.4272302E+00  0.6031990E-04 -0.6429280E+03  0.3249760E+02  0.5941267E-03 -0.2689362E-03  0.3531087E+04  0.8149228E+03  0.9491536E-03 -0.1336336E-03 -0.4290159E+03  0.2191942E+02  0.2898179E-04 -0.7629395E-05
  0.2461538E+00  0.3348742E+06  0.3655885E+03 -0.1053810E-02  0.1549721E-04  0.3040410E+02  0.6784405E+01 -0.4959107E-03  0.2145767E-04  0.2454461E+06 -0.2109003E+03 -0.3818512E-01  0.1854897E-03 -0.9559100E+03  0.1370858E+02  0.4261732E-03  0.2260208E-03  0.2219823E+04  0.1375887E+04  0.4770235E-03  0.1974106E-03 -0.6409202E+03  0.1073976E+02 -0.1627207E-03 -0.1144409E-04
  0.2948718E+00  0.3374957E+06  0.6596995E+03  0.4657248E-03  0.5483627E-05  0.8726854E+01  0.1787606E+02 -0.2483865E-02  0.1907349E-05  0.2509154E+06 -0.9471512E+03  0.7327403E-01 -0.3147125E-04 -0.1268482E+04 -0.7680663E+02  0.2486291E-04  0.1831055E-03  0.2019931E+03  0.1954215E+04  0.4308055E-04  0.2551079E-04 -0.8542621E+03 -0.4644069E+02 -0.1471561E-03  0.1525879E-04
  0.3435898E+00  0.3406145E+06  0.1107266E+04 -0.2664595E-03  0.1239777E-04 -0.4851521E+02  0.2465620E+02  0.0000000E+00  0.1907349E-05  0.2597019E+06 -0.1062344E+04 -0.2515377E+00  0.1070023E-02 -0.1434295E+04 -0.3039088E+03 -0.1165760E-03  0.4882812E-03 -0.2373681E+04  0.2358824E+04  0.2435606E-03 -0.4799366E-03 -0.9604238E+03 -0.2009799E+03  0.5551238E-04  0.1602173E-03
  0.3923077E+00  0.3451460E+06  0.1762444E+04  0.5445294E-03 -0.1955032E-04 -0.1159109E+03  0.9479731E+01  0.2022538E-02  0.3433228E-04  0.2715152E+06  0.1272984E+04 -0.9490369E-01  0.2910614E-02 -0.1328051E+04 -0.6748661E+03  0.1089059E-02  0.1811981E-03 -0.5165379E+04  0.2342406E+04  0.1574638E-02  0.6661415E-03 -0.8854351E+03 -0.4510020E+03  0.4667395E-03 -0.2059937E-03
  0.4410256E+00  0.3497262E+06  0.2693508E+04  0.6919683E-04  0.2765656E-04 -0.1313559E+03 -0.3960831E+02 -0.5535746E-03 -0.1869202E-03  0.2778652E+06  0.7331129E+04 -0.3111090E+00 -0.7514954E-03 -0.7813806E+03 -0.1177001E+04 -0.2837070E-02 -0.1487732E-03 -0.7699379E+04  0.1668498E+04  0.2073743E-02 -0.6651878E-03 -0.5304899E+03 -0.7858343E+03 -0.2594881E-03 -0.3662109E-03
  0.4897436E+00  0.3544403E+06  0.3972678E+04 -0.3738803E-03  0.7534027E-04 -0.2523193E+02 -0.1019548E+03 -0.2492535E-03 -0.5722046E-04  0.2721682E+06  0.1513057E+05  0.9022977E-01  0.3112793E-02  0.4864699E+03 -0.1695698E+04  0.4346358E-02 -0.4601479E-04 -0.9282423E+04  0.1582274E+03  0.4943204E-02  0.9585172E-05  0.3350573E+03 -0.1134303E+04  0.7166039E-03 -0.2365112E-03
  0.5384616E+00  0.3610691E+06  0.5754593E+04  0.9634835E-03 -0.1792908E-03  0.1902678E+03 -0.1058042E+03  0.2267020E-02 -0.3509521E-03  0.2572615E+06  0.1766574E+05 -0.3173828E-02 -0.1564026E-02  0.2353399E+04 -0.2003421E+04 -0.1629421E-03  0.6484985E-04 -0.9214573E+04 -0.2161365E+04  0.3377506E-02  0.5764961E-03  0.1578049E+04 -0.1340879E+04  0.1076835E-02 -0.9765625E-03
  0.5871795E+00  0.3687761E+06  0.8233809E+04  0.1039463E-02  0.8392334E-04  0.3484927E+03  0.2985513E+02 -0.1663141E-02 -0.2288818E-04  0.2500752E+06  0.7065583E+04 -0.2536291E+00 -0.3555298E-02  0.4686964E+04 -0.1648887E+04  0.1884027E-03 -0.1880646E-02 -0.6897586E+04 -0.4942388E+04 -0.6025639E-03  0.4996300E-02  0.3134863E+04 -0.1108249E+04 -0.3923974E-02  0.1510620E-02
  0.6358975E+00  0.3765571E+06  0.1178083E+05  0.2879481E-03  0.1831055E-03  0.1828037E+03  0.2619830E+03 -0.2879481E-02  0.3051758E-04  0.2745062E+06 -0.1196373E+05  0.4407526E+00  0.9155273E-04  0.6834710E+04 -0.1535623E+03  0.1994640E-03  0.1602173E-03 -0.2130079E+04 -0.7347964E+04  0.1696569E-03  0.6370544E-03  0.4591513E+04 -0.1041221E+03 -0.5159070E-03  0.1525879E-03
  0.6846154E+00  0.3850630E+06  0.1688177E+05  0.7132198E-03  0.2059937E-03 -0.3536674E+03  0.3114550E+03 -0.1604745E-02  0.4272461E-03  0.3365047E+06 -0.1098868E+05 -0.4564607E-01  0.2960205E-02  0.7446098E+04  0.2834567E+04 -0.1596387E-02  0.1190186E-02  0.4462891E+04 -0.8157667E+04  0.1076098E-02  0.4892349E-03  0.4994666E+04  0.1903689E+04 -0.7132198E-03 -0.1220703E-03
  0.7333333E+00  0.3943461E+06  0.2363509E+05  0.1997514E-02 -0.1678467E-03 -0.7063299E+03 -0.1305476E+03  0.6658381E-03  0.8239746E-03  0.3812011E+06  0.4098097E+05 -0.2593439E+00 -0.2444458E-01  0.4877304E+04  0.6889858E+04 -0.2413663E-02  0.8621216E-03  0.1104831E+05 -0.5932023E+04 -0.1950697E-04 -0.9775162E-03  0.3288621E+04  0.4638908E+04  0.2205589E-02  0.8544922E-03
  0.7820513E+00  0.4046879E+06  0.3214688E+05  0.4682697E-03 -0.4577637E-03 -0.7575336E+02 -0.7144200E+03  0.3121798E-02 -0.5493164E-03  0.3284835E+06  0.1089928E+06  0.9053214E-01 -0.1824951E-01 -0.2000125E+04  0.1015249E+05 -0.1814545E-02 -0.9441376E-04  0.1470781E+05 -0.1003079E+03 -0.1512121E-03  0.7575750E-04 -0.1343889E+04  0.6862632E+04 -0.7804495E-03  0.8010864E-04
  0.8307692E+00  0.4168745E+06  0.4362241E+05 -0.2277516E-02  0.3204346E-03  0.1102790E+04 -0.2994901E+03  0.3526476E-02  0.8544922E-03  0.2224143E+06  0.8016977E+05 -0.1340061E+00 -0.4656982E-01 -0.1218251E+05  0.9121605E+04 -0.8118241E-02  0.6507874E-02  0.1249071E+05  0.8089382E+04 -0.9413118E-02 -0.3072739E-02 -0.8230010E+04  0.6180836E+04  0.2938730E-02 -0.1647949E-02
  0.8794872E+00  0.4296054E+06  0.6075671E+05 -0.2220754E-02  0.6103516E-03  0.6178539E+03  0.1150656E+04 -0.1665566E-02 -0.9155273E-03  0.2836412E+06 -0.4600412E+05 -0.3697556E+00 -0.1574097E+00 -0.2037656E+05 -0.2163616E+03 -0.6029001E-03  0.1632690E-02  0.3030940E+04  0.1469319E+05  0.2483981E-02 -0.1293182E-02 -0.1382668E+05 -0.1440543E+03  0.1787013E-02 -0.6103516E-04
  0.9282051E+00  0.4369586E+06  0.8447277E+05  0.1841171E-02 -0.1220703E-03 -0.1590418E+04  0.7031488E+03  0.1841171E-02 -0.9765625E-03  0.5102915E+06  0.2443470E+05  0.2114716E+00 -0.4260254E-01 -0.1692064E+05 -0.1705567E+05  0.5967367E-02  0.5477905E-02 -0.1031100E+05  0.1360800E+05  0.2628190E-02  0.5941391E-02 -0.1154777E+05 -0.1163175E+05 -0.2630244E-03 -0.1403809E-02
  0.9769231E+00  0.4404071E+06  0.1094635E+06 -0.6247693E-03 -0.5187988E-03 -0.6940754E+03 -0.1957183E+04 -0.6247693E-02  0.8300781E-02  0.4213817E+06  0.3166249E+06 -0.2499077E+00  0.1708984E-01  0.3903996E+04 -0.2940673E+05 -0.5872831E-02  0.3421783E-02 -0.1850212E+05  0.2059937E+04  0.9547256E-02  0.9675026E-03  0.2658904E+04 -0.2012980E+05 -0.2624031E-02  0.3158569E-02
  0.1025641E+01  0.4501142E+06  0.1386281E+06 -0.2499390E-02  0.4272461E-03  0.2531542E+04 -0.2803683E+03  0.4760743E-02  0.1220703E-03  0.1086444E+06  0.1794254E+06 -0.2718384E+00 -0.2739258E+00  0.3219376E+05 -0.1838720E+05 -0.5415345E-02 -0.5081177E-02 -0.1372455E+05 -0.1411739E+05 -0.3678418E-02 -0.1480103E-02  0.2218198E+05 -0.1268321E+05 -0.6546021E-02  0.7812500E-02
  0.1074359E+01  0.4520091E+06  0.1872169E+06  0.1931566E-02 -0.4516602E-02 -0.7861776E+03  0.3059302E+04  0.6817292E-03  0.2441406E-03  0.4405239E+06 -0.1037734E+06 -0.8317097E-01 -0.1599121E+00  0.3827884E+05  0.2335282E+05  0.1068753E-02 -0.5157471E-02  0.4037896E+04 -0.2108291E+05 -0.2536956E-02 -0.3856659E-02  0.2656366E+05  0.1618388E+05  0.8848277E-02  0.2441406E-03
  0.1123077E+01  0.4312698E+06  0.2287440E+06  0.6521565E-03 -0.3540039E-02 -0.2363713E+04 -0.2527614E+04  0.9564961E-02 -0.9765625E-03  0.5734007E+06  0.4961386E+06  0.3043397E-02 -0.5231934E+00 -0.1603659E+04  0.5621181E+05  0.1301596E-01 -0.2761841E-02  0.1857364E+05 -0.7067252E+04 -0.7683218E-02 -0.2286911E-02 -0.1095567E+04  0.3920616E+05 -0.1521698E-02 -0.1007080E-01
  0.1171795E+01  0.4285856E+06  0.2625554E+06  0.6042080E-02  0.2441406E-03  0.3538047E+04 -0.9472059E+03 -0.1166746E-01 -0.6591797E-02 -0.1999444E+05  0.3706865E+06  0.7442175E+00  0.3222656E-01 -0.5246278E+05  0.2723254E+05 -0.9896510E-03 -0.1831055E-02  0.1434126E+05  0.1536694E+05  0.3994414E-02 -0.1017761E-01 -0.3684762E+05  0.1915309E+05 -0.2083476E-02 -0.6591797E-02
  0.1220513E+01  0.4077097E+06  0.3340096E+06 -0.2000312E-02  0.1464844E-02 -0.1961435E+04  0.4118771E+04  0.3000468E-02  0.2441406E-02  0.5075931E+06 -0.6332803E+05 -0.2112329E+00 -0.1304688E+01 -0.4452284E+05 -0.5730047E+05 -0.7701200E-02  0.1733398E-01 -0.6518625E+04  0.2196329E+05 -0.1776839E-02  0.1909256E-01 -0.3164110E+05 -0.4069707E+05  0.5100795E-02 -0.3417969E-02
  0.1269231E+01  0.3649499E+06  0.3532774E+06  0.5770597E-03  0.1342773E-02 -0.8171638E+03 -0.4747389E+04  0.2500592E-02  0.2441406E-02  0.3482011E+06  0.8393864E+06  0.2654475E-01  0.1484375E+00  0.3196288E+05 -0.7549841E+05 -0.6972805E-02 -0.0000000E+00 -0.1744357E+05  0.6300806E+03 -0.9275032E-02  0.4110336E-03  0.2294273E+05 -0.5421493E+05 -0.3077652E-02  0.3784180E-02
  0.1317949E+01  0.3611219E+06  0.3990002E+06  0.2778643E-03 -0.9033203E-02  0.3020202E+04  0.3292042E+04  0.4816315E-02  0.1953125E-02 -0.3959530E+05  0.7813694E+05 -0.7706104E-01  0.4296875E+00  0.7180762E+05  0.2046938E+05  0.1574565E-02 -0.1068115E-01 -0.6064318E+04 -0.2044808E+05  0.3356804E-02  0.1064301E-02  0.5207147E+05  0.1482659E+05 -0.2963886E-02  0.2441406E-02
  0.1366667E+01  0.2993053E+06  0.4406084E+06 -0.8038777E-03  0.1928711E-01 -0.3679600E+04 -0.9068237E+03  0.3304830E-02  0.4882812E-03  0.5683498E+06  0.5380005E+06  0.2622428E+00  0.4721680E+00 -0.2276426E+04  0.1019431E+06  0.6386362E-02  0.1678467E-02  0.1227910E+05 -0.1197729E+05  0.5582484E-05 -0.4703522E-02 -0.1683950E+04  0.7489685E+05 -0.1786395E-02  0.8422852E-02
  0.1415385E+01  0.2907806E+06  0.4355615E+06 -0.2587360E-03  0.9765625E-03  0.3275901E+04 -0.1529424E+04  0.1207435E-02  0.3906250E-02 -0.1345540E+06  0.5922847E+06 -0.4407136E+00 -0.4248047E+00 -0.7351284E+05  0.1909312E+05  0.1552416E-02  0.9643555E-02  0.1051077E+05  0.1203231E+05  0.6070863E-02  0.7808685E-02 -0.5478342E+05  0.1418676E+05 -0.4829738E-02 -0.1953125E-02
  0.1464103E+01  0.2453609E+06  0.4908686E+06 -0.2199029E-02  0.5615234E-02 -0.2527453E+04  0.2872043E+04  0.8629366E-02 -0.2685547E-02  0.4009281E+06  0.2063768E+06 -0.2939821E+00  0.7407227E+00 -0.2201695E+05 -0.1063641E+06  0.1292321E-02 -0.3723145E-02 -0.5957813E+04  0.1576425E+05 -0.7759134E-02 -0.2861023E-02 -0.1661112E+05 -0.8042270E+05 -0.3918649E-02  0.1708984E-02
  0.1512820E+01  0.2233783E+06  0.4563871E+06  0.1260790E-02  0.2685547E-02  0.1563310E+04 -0.3390890E+04  0.1976918E-02 -0.4150391E-02 -0.2897382E+05  0.7930496E+06  0.1010246E+00  0.9179688E-01  0.6538266E+05 -0.4243661E+05  0.6455244E-02  0.5432129E-02 -0.9788756E+04 -0.5073284E+04  0.2430803E-02 -0.6999969E-03  0.5008902E+05 -0.3247179E+05  0.3066241E-02 -0.1525879E-01
  0.1561538E+01  0.1980270E+06  0.5040548E+06 -0.2188847E-02 -0.1953125E-02 -0.9052169E+03  0.3657596E+04 -0.2892405E-02  0.1025391E-01  0.1949210E+06  0.1369194E+06  0.9255696E-01  0.2451172E+00  0.3323441E+05  0.9868871E+05 -0.2843547E-02 -0.3601074E-02  0.1820208E+04 -0.1450360E+05  0.4104088E-03  0.6904602E-02  0.2586421E+05  0.7699623E+05 -0.1407116E-02  0.1074219E-01
  0.1610256E+01  0.1712725E+06  0.4625363E+06  0.2880704E-02  0.1220703E-02  0.5082599E+03 -0.3155215E+04 -0.3411360E-03  0.3417969E-02  0.2841196E+05  0.7750731E+06 -0.1731455E+00 -0.4023438E+00 -0.5692762E+05  0.4932450E+05 -0.4169440E-03 -0.1892090E-02  0.7763175E+04  0.1670170E+04  0.1471860E-01 -0.8392334E-04 -0.4524956E+05  0.3906791E+05  0.1713261E-01 -0.1855469E-01
  0.1658974E+01  0.1573979E+06  0.4967839E+06 -0.3164017E-02  0.4638672E-02 -0.2567001E+03  0.2879641E+04  0.3095034E-02 -0.1098633E-01  0.9260595E+05  0.2067757E+06 -0.5062427E-01  0.6274414E-01 -0.3276126E+05 -0.9155987E+05 -0.2943272E-03  0.3662109E-03 -0.2705203E+03  0.1172871E+05  0.2759317E-03 -0.8754730E-03 -0.2638465E+05 -0.7398573E+05 -0.8461907E-02 -0.6835938E-02
  0.1707692E+01  0.1341022E+06  0.4559952E+06 -0.7148261E-03  0.8544922E-03  0.2823708E+03 -0.2297067E+04 -0.2694001E-02 -0.2441406E-03  0.1717536E+05  0.6815046E+06 -0.7705111E+00  0.2856445E-01  0.5062211E+05 -0.4332920E+05  0.6647883E-02 -0.1159668E-02 -0.5658895E+04 -0.5584738E+03  0.6106179E-02 -0.3795624E-03  0.4164299E+05 -0.3554327E+05 -0.7577157E-02  0.1318359E-01
  0.1756410E+01  0.1230609E+06  0.4795888E+06 -0.2849495E-02 -0.1953125E-02 -0.2589359E+03  0.2094281E+04 -0.9447641E-03 -0.3662109E-02  0.6226221E+05  0.2677879E+06  0.5240291E-01 -0.4645996E+00  0.2435630E+05  0.8991848E+05 -0.1737497E-03  0.2404785E-01  0.1365692E+03 -0.9119119E+04 -0.1618044E-03 -0.3473282E-02  0.2038149E+05  0.7526659E+05  0.1042498E-02 -0.1733398E-01
  0.1805128E+01  0.1070972E+06  0.4401950E+06 -0.1825853E-02 -0.1220703E-03  0.3410280E+03 -0.1534227E+04 -0.2348884E-02 -0.9765625E-03 -0.1186492E+05  0.5916346E+06 -0.4451700E+00  0.4841309E+00 -0.4645982E+05  0.2821037E+05 -0.6762418E-03 -0.3784180E-02  0.4093575E+04  0.7748785E+03 -0.1464803E-01  0.7972717E-03 -0.3974614E+05  0.2406127E+05  0.5409934E-03  0.7080078E-02
  0.1853846E+01  0.9448511E+05  0.4558524E+06  0.5926235E-03 -0.6103516E-03 -0.4447996E+03  0.1180970E+04 -0.1870468E-02 -0.2075195E-02  0.5495955E+05  0.3408128E+06  0.1962242E-01 -0.5004883E-01 -0.9992887E+04 -0.9091389E+05 -0.3950823E-03  0.2624512E-02 -0.7100974E+03  0.6954504E+04  0.1201709E-02 -0.6941795E-02 -0.8661818E+04 -0.7949901E+05  0.2238800E-02 -0.1098633E-01
  0.1902564E+01  0.8751456E+05  0.4185459E+06 -0.6416095E-03 -0.1586914E-02  0.4991979E+03 -0.7516932E+03  0.9223136E-03  0.1342773E-02 -0.4452575E+05  0.4965341E+06 -0.1911996E-01 -0.1647949E-01  0.4370818E+05 -0.4708718E+04  0.2470196E-02  0.2441406E-03 -0.2933290E+04 -0.1655557E+04  0.1054796E-01 -0.7991791E-03  0.3891539E+05 -0.4113616E+04  0.3849657E-02 -0.1245117E-01
  0.1951282E+01  0.7100361E+05  0.4220474E+06  0.1876771E-03 -0.8544922E-03 -0.5423076E+03  0.3254764E+03 -0.2001889E-02  0.7080078E-02  0.4327095E+05  0.3974282E+06 -0.1480147E+00 -0.2502441E-01 -0.9012688E+04  0.8450020E+05  0.1845491E-02 -0.9582520E-02  0.1383467E+04 -0.4818177E+04 -0.2062493E-02 -0.3917217E-02 -0.8227139E+04  0.7696845E+05  0.1501417E-02  0.4882812E-02
  0.2000000E+01  0.7334762E+05  0.3934035E+06 -0.2441406E-03  0.1525879E-02  0.4266855E+03  0.1281501E+03 -0.1220703E-03 -0.3112793E-02 -0.4905979E+05  0.3913995E+06 -0.5090332E-01  0.8129883E-01 -0.3811934E+05 -0.3167902E+05 -0.2670288E-02  0.2258301E-02  0.1894802E+04  0.2918509E+04  0.2377033E-03  0.3368378E-02 -0.3544407E+05 -0.2932489E+05  0.1647949E-02  0.3417969E-02
Zone t="Motion of body    1 in DoF   2",I=    40,F=POINT
  0.1000000E+00 -0.6484985E-03 -0.1490116E-06  0.3286008E+06  0.2237157E+02 -0.2746582E-02  0.7376075E-06 -0.2411346E+06 -0.2885370E+02  0.0000000E+00  0.1902580E-03  0.3286008E+08  0.2237156E+04 -0.2712011E-04  0.1117587E-06  0.3698149E+03  0.1100549E+02  0.2644956E-05 -0.1636799E-06 -0.2487866E+03 -0.7330757E+01 -0.5413312E-05 -0.3288733E-07  0.9524584E-01  0.3623068E-03
  0.1487180E+00  0.2052044E-03 -0.2980232E-06  0.3295525E+06  0.7511417E+02  0.2359851E-02 -0.2980232E-06 -0.2426347E+06 -0.9673937E+02  0.6336712E+00  0.2593994E-03  0.3295524E+08  0.7511413E+04 -0.1022014E-04  0.2577901E-05  0.3644851E+03  0.3406255E+02 -0.1778505E-05  0.1016073E-05 -0.2440868E+03 -0.2268546E+02  0.8234979E-06 -0.3539026E-07 -0.1619303E+01  0.3169513E-01
  0.1974359E+00 -0.1545696E-03 -0.1251698E-05  0.3313487E+06  0.1809652E+03 -0.1159272E-02 -0.3159046E-05 -0.2449114E+06 -0.2324919E+03  0.2423650E+00  0.8010864E-04  0.3313486E+08  0.1809652E+05  0.2324581E-04 -0.8940697E-07  0.3121497E+03  0.7285773E+02  0.4198208E-05 -0.2924353E-06 -0.2082422E+03 -0.4850307E+02  0.5575598E-05  0.6589107E-06 -0.3222032E+00  0.6058383E-01
  0.2461538E+00 -0.3099442E-03  0.1788139E-05  0.3339716E+06  0.3642770E+03 -0.1859665E-03  0.1490116E-04 -0.2475346E+06 -0.4662562E+03  0.1785278E+00  0.1274109E-02  0.3339716E+08  0.3642771E+05  0.5811453E-05 -0.2264977E-05  0.1968183E+03  0.1243532E+03  0.5156908E-05 -0.1814216E-05 -0.1312669E+03 -0.8291635E+02 -0.6101837E-05  0.4535541E-06  0.4561216E-01  0.6893587E-01
  0.2948718E+00 -0.5174720E-04  0.4053116E-05  0.3365884E+06  0.6553021E+03 -0.6157916E-02  0.1692772E-04 -0.2508684E+06 -0.8356021E+03  0.1655910E+00 -0.1510620E-02  0.3365884E+08  0.6553024E+05 -0.1137023E-06 -0.2384186E-06  0.1348050E+02  0.1785706E+03 -0.2289839E-07  0.6183982E-05 -0.8755847E+01 -0.1190939E+03  0.6810790E-06  0.4079193E-05  0.9275225E-01  0.6237745E-01
  0.3435898E+00  0.8881981E-04 -0.3337860E-05  0.3396858E+06  0.1095133E+04  0.1954036E-02 -0.3337860E-05 -0.2539482E+06 -0.1389152E+04  0.3467526E+00 -0.9155273E-03  0.3396858E+08  0.1095133E+06 -0.3530241E-04 -0.1215935E-04 -0.2284904E+03  0.2186711E+03 -0.1191023E-04 -0.7141382E-05  0.1535502E+03 -0.1462506E+03 -0.8020564E-05 -0.6717630E-05  0.4265023E+00 -0.9161568E-01
  0.3923077E+00  0.3889496E-04 -0.2384186E-05  0.3442146E+06  0.1738134E+04  0.8245731E-02 -0.4291534E-04 -0.2589776E+06 -0.2192189E+04  0.8463542E-01 -0.8239746E-02  0.3442146E+08  0.1738134E+06 -0.2157455E-04 -0.7152557E-06 -0.5001469E+03  0.2196709E+03 -0.2119471E-04  0.4328787E-05  0.3350806E+03 -0.1468616E+03  0.5149118E-05  0.2373010E-05  0.4027804E+00  0.7497787E-02
  0.4410256E+00  0.1037953E-03  0.2861023E-05  0.3487989E+06  0.2659896E+04  0.6331510E-02 -0.9059906E-04 -0.2638145E+06 -0.3331308E+04  0.7085755E+00 -0.1000977E-01  0.3487991E+08  0.2659898E+06 -0.5406002E-06 -0.4112720E-05 -0.7556356E+03  0.1555601E+03 -0.8919905E-05  0.5330890E-05  0.5053344E+03 -0.1037881E+03 -0.5169490E-05  0.3560446E-05  0.8370028E+00  0.5623055E-01
  0.4897436E+00 -0.5608204E-03  0.9536743E-05  0.3535172E+06  0.3949439E+04 -0.1308581E-02 -0.1106262E-03 -0.2687105E+06 -0.4909985E+04 -0.1124632E+01 -0.5126953E-02  0.3535173E+08  0.3949439E+06 -0.4040633E-04 -0.3270805E-05 -0.9275944E+03  0.3931503E+01 -0.1916867E-04  0.1138542E-06  0.6211631E+03 -0.2163521E+01  0.6020635E-05  0.2605899E-05  0.6820589E+00 -0.1448517E+00
  0.5384616E+00 -0.5667550E-04 -0.1525879E-04  0.3601030E+06  0.5769920E+04  0.1586914E-02 -0.4177094E-03 -0.2753636E+06 -0.7110417E+04 -0.3191964E+00  0.1025391E-01  0.3601029E+08  0.5769917E+06  0.8855547E-05 -0.9536743E-05 -0.9371330E+03 -0.2400150E+03  0.4151038E-07  0.6929040E-05  0.6275837E+03  0.1613029E+03 -0.6703925E-05  0.4291534E-05 -0.9743192E+00  0.2077613E+00
  0.5871795E+00 -0.3638122E-03 -0.4768372E-04  0.3676660E+06  0.8280195E+04 -0.8835439E-03 -0.5092621E-03 -0.2837943E+06 -0.1011625E+05  0.9180540E+00  0.5126953E-02  0.3676659E+08  0.8280195E+06  0.1542953E-04  0.7915497E-04 -0.6981623E+03 -0.5446700E+03  0.2419747E-04  0.6407499E-05  0.4685513E+03  0.3667628E+03 -0.1478241E-05 -0.1427159E-04 -0.4489183E+00 -0.1512197E+01
  0.6358975E+00  0.1775680E-02  0.7629395E-05  0.3751943E+06  0.1174345E+05  0.5806954E-02 -0.3814697E-03 -0.2913812E+06 -0.1420123E+05  0.7862903E+00 -0.1733398E-01  0.3751943E+08  0.1174346E+07  0.7498649E-06  0.5245209E-05 -0.1704471E+03 -0.8205272E+03  0.4338086E-05 -0.3708899E-04  0.1130418E+03  0.5512445E+03  0.1284290E-04 -0.2250075E-05 -0.1512749E+01 -0.1237745E+01
  0.6846154E+00  0.8915248E-03  0.4959106E-04  0.3836706E+06  0.1657009E+05 -0.6641860E-02 -0.2365112E-03 -0.2996893E+06 -0.1979998E+05 -0.6675738E+00 -0.1152344E+00  0.3836705E+08  0.1657008E+07  0.8358044E-05 -0.3671646E-04  0.5995328E+03 -0.9198770E+03 -0.8238333E-05 -0.1344085E-04 -0.4055599E+03  0.6194753E+03  0.1447966E-04  0.2193451E-04 -0.2989678E+01  0.4446144E+01
  0.7333333E+00  0.2913041E-03 -0.3051758E-04  0.3933956E+06  0.2310308E+05 -0.6242231E-03  0.1029968E-02 -0.3097218E+06 -0.2732035E+05  0.5965909E+00 -0.2343750E-01  0.3933957E+08  0.2310308E+07  0.3576279E-04 -0.2861023E-05  0.1409779E+04 -0.6444792E+03 -0.2068552E-04 -0.1851469E-04 -0.9552908E+03  0.4347350E+03 -0.6827441E-05  0.1926348E-04 -0.1238321E+01 -0.2477531E+00
  0.7820513E+00  0.3902247E-03  0.2288818E-04  0.4042492E+06  0.3202444E+05  0.2302326E-02  0.9918213E-04 -0.3205852E+06 -0.3743762E+05 -0.2946977E+00 -0.2871094E+00  0.4042492E+08  0.3202445E+07  0.4755864E-04  0.4172325E-05  0.1874239E+04  0.1226370E+03  0.5102646E-04 -0.2194196E-05 -0.1272026E+04 -0.8548556E+02  0.4058490E-05  0.1859106E-04  0.4706501E+00 -0.8576859E+00
  0.8307692E+00 -0.7346824E-04  0.4272461E-03  0.4156359E+06  0.4433587E+05 -0.2938730E-03  0.6103516E-03 -0.3314661E+06 -0.5108483E+05 -0.1269531E+01 -0.1660156E+00  0.4156360E+08  0.4433586E+07 -0.1549721E-03  0.1211166E-03  0.1525441E+04  0.1247307E+04 -0.3452792E-04 -0.4738569E-05 -0.1034885E+04 -0.8498574E+03  0.6229375E-04  0.4252046E-04 -0.7519062E+00 -0.1994167E+01
  0.8794872E+00  0.6245871E-03  0.2746582E-03  0.4264991E+06  0.6057475E+05 -0.2984139E-02  0.1373291E-02 -0.3421247E+06 -0.6890863E+05  0.7106414E-01  0.1289062E+00  0.4264991E+08  0.6057468E+07 -0.1640083E-04 -0.9059906E-04  0.1012854E+03  0.2128321E+04  0.1511105E-05 -0.4404783E-04 -0.6565620E+02 -0.1452944E+04  0.3144583E-05 -0.2929568E-04 -0.2069396E+01 -0.3012897E+01
  0.9282051E+00 -0.8548294E-03 -0.2746582E-03  0.4353033E+06  0.8158846E+05  0.6049562E-02  0.2914429E-02 -0.3495910E+06 -0.9157111E+05  0.6649258E+00  0.4863281E+00  0.4353034E+08  0.8158847E+07 -0.2373384E-03  0.3623962E-04 -0.1900512E+04  0.1811787E+04  0.4886758E-04  0.2959371E-04  0.1308309E+04 -0.1242005E+04  0.7557297E-04  0.5184859E-04  0.1118626E+01 -0.6962185E+01
  0.9769231E+00  0.1436969E-02  0.9155273E-04  0.4425281E+06  0.1088592E+06  0.7059893E-02 -0.6103516E-03 -0.3545811E+06 -0.1203441E+06  0.4998154E+00  0.4550781E+00  0.4425278E+08  0.1088591E+08 -0.9176299E-04 -0.6437302E-04 -0.3048398E+04 -0.2460767E+03  0.2696758E-04  0.1430511E-05  0.2103846E+04  0.1741411E+03  0.6192782E-05 -0.9480491E-04  0.1322711E+02 -0.1385855E+02
  0.1025641E+01 -0.1428223E-02 -0.1586914E-02  0.4471752E+06  0.1423735E+06 -0.2975464E-03  0.7934570E-03 -0.3587472E+06 -0.1556225E+06  0.1313965E+01  0.3125000E-01  0.4471748E+08  0.1423735E+08  0.1245976E-03  0.3108978E-03 -0.1743652E+04 -0.2992711E+04  0.2295524E-05 -0.2139807E-04  0.1209364E+04  0.2084726E+04  0.2288623E-03  0.1139939E-04  0.2202797E+02  0.4382843E+01
  0.1074359E+01  0.9657830E-03 -0.6103516E-03  0.4460239E+06  0.1811435E+06 -0.3408646E-03 -0.6958008E-02 -0.3555906E+06 -0.1956974E+06 -0.2181533E+00  0.6054688E+00  0.4460239E+08  0.1811434E+08 -0.1295996E-03 -0.2651215E-03  0.1706883E+04 -0.3532596E+04  0.2388382E-04 -0.3647804E-04 -0.1201136E+04  0.2474936E+04  0.1192111E-04  0.5070865E-04  0.1473178E+02  0.2281941E+02
  0.1123077E+01 -0.1630391E-02 -0.5493164E-03  0.4380806E+06  0.2249886E+06  0.7445453E-02  0.3051758E-03 -0.3445250E+06 -0.2395480E+06  0.3652076E+00  0.5820312E+00  0.4380807E+08  0.2249886E+08  0.4075978E-04  0.2462864E-03  0.3976721E+04 -0.2673815E+02  0.8693297E-04  0.1067668E-04 -0.2808118E+04  0.1384398E+02 -0.5048534E-04  0.6967410E-04 -0.7147078E+01  0.3930106E+02
  0.1171795E+01  0.1250085E-02 -0.3662109E-03  0.4235717E+06  0.2718737E+06 -0.5000342E-02 -0.3295898E-02 -0.3285998E+06 -0.2860985E+06  0.1000068E+00 -0.6757812E+00  0.4235717E+08  0.2718738E+08 -0.8138577E-05  0.2365112E-03  0.1735322E+04  0.4480115E+04  0.3326643E-04 -0.4243851E-04 -0.1232643E+04 -0.3193136E+04  0.1029721E-03 -0.1044571E-03 -0.5155375E+02 -0.5319977E+01
  0.1220513E+01  0.4000624E-03  0.1831055E-03  0.4028296E+06  0.3178757E+06 -0.8001247E-02  0.1892090E-02 -0.3063667E+06 -0.3317277E+06  0.1065766E+01  0.7734375E+00  0.4028298E+08  0.3178756E+08  0.0000000E+00 -0.5722046E-03 -0.3059425E+04  0.3745077E+04  0.1469956E-04 -0.4523993E-04  0.2209526E+04 -0.2699318E+04 -0.1624765E-03 -0.7162988E-04 -0.3308569E+02 -0.8515646E+02
  0.1269231E+01 -0.7934570E-03 -0.2746582E-02  0.3759961E+06  0.3602274E+06 -0.5914862E-02  0.1220703E-02 -0.2782467E+06 -0.3722591E+06 -0.6463069E-01  0.6875000E+00  0.3759960E+08  0.3602274E+08  0.3817009E-03 -0.4215240E-03 -0.3876400E+04 -0.2553027E+04  0.4550544E-04 -0.2714992E-04  0.2831258E+04  0.1866281E+04  0.2920989E-04  0.2788454E-03  0.5511133E+02 -0.9479143E+02
  0.1317949E+01 -0.6483501E-03  0.1770020E-02  0.3456480E+06  0.3977768E+06  0.4631072E-03  0.1647949E-02 -0.2463144E+06 -0.4063531E+06  0.7587548E+00  0.5859375E+00  0.3456481E+08  0.3977768E+08  0.1219274E-03  0.3013611E-03  0.9633759E+03 -0.5552936E+04  0.3708476E-05  0.1943111E-04 -0.7112598E+03  0.4105327E+04 -0.4079832E-03  0.4217029E-05  0.1234424E+03  0.6524687E+02
  0.1366667E+01  0.3796089E-03 -0.2685547E-02  0.3131816E+06  0.4284138E+06 -0.5761123E-02  0.5737305E-02 -0.2147535E+06 -0.4349219E+06  0.5802211E+00  0.3437500E+00  0.3131817E+08  0.4284139E+08 -0.2847067E-03 -0.6675720E-04  0.4196416E+04  0.1033563E+03 -0.1803840E-03 -0.8776784E-05 -0.3150260E+04 -0.7410644E+02 -0.4404929E-04  0.4517008E-03 -0.2721741E+02  0.2155862E+03
  0.1415385E+01  0.2587360E-03  0.1098633E-02  0.2814472E+06  0.4515611E+06  0.1272119E-02 -0.4272461E-02 -0.1833465E+06 -0.4562039E+06  0.5243716E-01 -0.1492188E+01  0.2814472E+08  0.4515611E+08  0.7815983E-04  0.6675720E-03  0.5802703E+03  0.5612115E+04  0.1204666E-04 -0.1609921E-03 -0.4477365E+03 -0.4281870E+04  0.1462312E-03 -0.1152605E-03 -0.1875192E+03  0.8095795E+01
  0.1464103E+01  0.3126582E-04  0.4028320E-02  0.2509573E+06  0.4671189E+06 -0.8129113E-03  0.9155273E-02 -0.1539093E+06 -0.4693448E+06 -0.1047197E+01  0.8906250E+00  0.2509571E+08  0.4671192E+08 -0.3413185E-03  0.8029938E-03 -0.3626605E+04  0.1452623E+04  0.5475589E-04  0.8270144E-06  0.2812978E+04 -0.1138858E+04  0.3640554E-03 -0.4017167E-03 -0.5717159E+02 -0.3391393E+03
  0.1512820E+01 -0.5043159E-04  0.6103516E-04  0.2226512E+06  0.4767214E+06  0.1401998E-02 -0.1464844E-02 -0.1265002E+06 -0.4751975E+06 -0.4066804E-01 -0.5468750E-01  0.2226513E+08  0.4767214E+08 -0.2609835E-03 -0.1144409E-03 -0.1190563E+04 -0.4955292E+04  0.1055911E-04  0.2264977E-04  0.9493339E+03  0.3905176E+04  0.3322698E-03  0.1114458E-03  0.2699142E+03 -0.1371185E+03
  0.1561538E+01  0.4030801E-03 -0.2014160E-02  0.1968375E+06  0.4806712E+06  0.1333829E-02 -0.5615234E-02 -0.1030422E+06 -0.4787144E+06 -0.1876155E-02  0.1085938E+01  0.1968374E+08  0.4806713E+08 -0.1734466E-03  0.3623962E-03  0.2959281E+04 -0.1895779E+04 -0.4011716E-04  0.4376471E-04 -0.2380583E+04  0.1543806E+04 -0.5566208E-04 -0.3017709E-03  0.1228137E+03  0.4544161E+03
  0.1610256E+01 -0.1563540E-03  0.3784180E-02  0.1742570E+06  0.4804711E+06 -0.4832760E-03  0.7934570E-02 -0.8225268E+05 -0.4786047E+06  0.4086051E+00  0.5312500E+00  0.1742572E+08  0.4804711E+08 -0.2084720E-03 -0.8010864E-03  0.1110698E+04  0.4321646E+04 -0.8421054E-05  0.5161762E-04 -0.9255102E+03 -0.3552697E+04  0.6181748E-03  0.4768372E-05 -0.3529978E+03  0.2483794E+03
  0.1658974E+01 -0.5702589E-03  0.3051758E-03  0.1545092E+06  0.4773976E+06  0.3138723E-03 -0.8178711E-02 -0.6377005E+05 -0.4745712E+06 -0.1611441E-01  0.9453125E+00  0.1545090E+08  0.4773974E+08  0.7588122E-04  0.3395081E-03 -0.2454702E+04  0.1500127E+04  0.1268280E-04 -0.3597140E-04  0.2060070E+04 -0.1280154E+04 -0.1750442E-03 -0.3203973E-03 -0.1691079E+03 -0.6731298E+03
  0.1707692E+01  0.2769951E-03  0.9765625E-03  0.1370149E+06  0.4710738E+06  0.1077824E-03 -0.3051758E-02 -0.4825221E+05 -0.4679907E+06  0.2771738E-01  0.3203125E+00  0.1370151E+08  0.4710742E+08 -0.5405872E-03 -0.2288818E-04 -0.6283282E+03 -0.3839198E+04  0.2714847E-04  0.2098083E-04  0.5522374E+03  0.3296986E+04 -0.1164178E-03  0.2463311E-03  0.4880997E+03 -0.2634936E+03
  0.1756410E+01  0.1303123E-03 -0.6103516E-04  0.1215974E+06  0.4631461E+06  0.5964502E-03  0.4302979E-02 -0.3470475E+05 -0.4597752E+06 -0.5942240E-02  0.9453125E+00  0.1215972E+08  0.4631455E+08  0.1237967E-03 -0.4634857E-03  0.2040123E+04 -0.5469434E+03  0.1683200E-04  0.3034621E-04 -0.1793757E+04  0.5008312E+03 -0.1552549E-04  0.4135696E-03  0.1051199E+03  0.1019318E+04
  0.1805128E+01 -0.1149611E-02 -0.7019043E-03  0.1079848E+06  0.4532137E+06 -0.5283139E-06  0.2258301E-02 -0.2286720E+05 -0.4524246E+06 -0.2282316E-02  0.4140625E+00  0.1079848E+08  0.4532146E+08 -0.4068017E-03  0.1411438E-03 -0.2293259E+02  0.3259690E+04  0.5241864E-06 -0.1582503E-04  0.1368851E+02 -0.2947178E+04  0.3281944E-04  0.4426837E-03 -0.6643478E+03 -0.2715416E+02
  0.1853846E+01  0.8889352E-03  0.1220703E-03  0.9601818E+05  0.4419008E+06 -0.3390094E-03 -0.6713867E-03 -0.1221399E+05 -0.4439414E+06 -0.3427339E-01 -0.5156250E+00  0.9601857E+07  0.4418996E+08 -0.6996249E-04 -0.1540184E-03 -0.1524706E+04 -0.6418159E+03  0.5530124E-05  0.6839633E-05  0.1417825E+04  0.5891531E+03  0.1281775E-03  0.5268753E-03  0.1932149E+03 -0.1296246E+04
  0.1902564E+01 -0.1082716E-03  0.1525879E-03  0.8540761E+05  0.4292921E+06 -0.1239108E-02  0.5645752E-03 -0.2684499E+04 -0.4329855E+06  0.2373955E-01 -0.3183594E+00  0.8540680E+07  0.4292924E+08  0.1042615E-03  0.1079559E-02  0.6079200E+03 -0.2268715E+04 -0.3508802E-05  0.2926588E-04 -0.5795806E+03  0.2158734E+04  0.1479062E-03 -0.3738329E-03  0.6716622E+03  0.8278859E+03