VARIABLES="X" "Y" "Z" "NX" "NY" "NZ" "A"
 ZONE N=         351 , E=         280  , F=FEPOINT,ET=QUADRILATERAL
   0.1000000E+02   0.5000000E+01  -0.1000000E+02   0.0000000E+00   0.0000000E+00   0.0000000E+00   0.0000000E+00
   0.1000000E+02   0.5000000E+01  -0.8750000E+01   0.0000000E+00   0.0000000E+00   0.0000000E+00   0.0000000E+00
   0.1000000E+02   0.5000000E+01  -0.7500000E+01   0.0000000E+00   0.0000000E+00   0.0000000E+00   0.0000000E+00
   0.1000000E+02   0.5000000E+01  -0.6250000E+01   0.0000000E+00   0.0000000E+00   0.0000000E+00   0.0000000E+00
   0.1000000E+02   0.5000000E+01  -0.5000000E+01   0.0000000E+00   0.0000000E+00   0.0000000E+00   0.0000000E+00
   0.1000000E+02   0.5000000E+01  -0.3750000E+01   0.0000000E+00   0.0000000E+00   0.0000000E+00   0.0000000E+00
   0.1000000E+02   0.5000000E+01  -0.2500000E+01   0.0000000E+00   0.0000000E+00   0.0000000E+00   0.0000000E+00
   0.1000000E+02   0.5000000E+01  -0.1250000E+01   0.0000000E+00   0.0000000E+00   0.0000000E+00   0.0000000E+00
   0.1000000E+02   0.5000000E+01   0.0000000E+00   0.0000000E+00   0.0000000E+00   0.0000000E+00   0.0000000E+00
   0.9090909E+01   0.4090909E+01  -0.1000000E+02   0.0000000E+00   0.0000000E+00   0.0000000E+00   0.0000000E+00
   0.9090909E+01   0.4090909E+01  -0.8750000E+01   0.0000000E+00   0.0000000E+00   0.0000000E+00   0.0000000E+00
   0.9090909E+01   0.4090909E+01  -0.7500000E+01   0.0000000E+00   0.0000000E+00   0.0000000E+00   0.0000000E+00
   0.9090909E+01   0.4090909E+01  -0.6250000E+01   0.0000000E+00   0.0000000E+00   0.0000000E+00   0.0000000E+00
   0.9090909E+01   0.4090909E+01  -0.5000000E+01   0.0000000E+00   0.0000000E+00   0.0000000E+00   0.0000000E+00
   0.9090909E+01   0.4090909E+01  -0.3750000E+01   0.0000000E+00   0.0000000E+00   0.0000000E+00   0.0000000E+00
   0.9090909E+01   0.4090909E+01  -0.2500000E+01   0.0000000E+00   0.0000000E+00   0.0000000E+00   0.0000000E+00
   0.9090909E+01   0.4090909E+01  -0.1250000E+01   0.0000000E+00   0.0000000E+00   0.0000000E+00   0.0000000E+00
   0.9090909E+01   0.4090909E+01   0.0000000E+00   0.0000000E+00   0.0000000E+00   0.0000000E+00   0.0000000E+00
   0.8181818E+01   0.3181818E+01  -0.1000000E+02   0.0000000E+00   0.0000000E+00   0.0000000E+00   0.0000000E+00
   0.8181818E+01   0.3181818E+01  -0.8750000E+01   0.0000000E+00   0.0000000E+00   0.0000000E+00   0.0000000E+00
   0.8181818E+01   0.3181818E+01  -0.7500000E+01   0.0000000E+00   0.0000000E+00   0.0000000E+00   0.0000000E+00
   0.8181818E+01   0.3181818E+01  -0.6250000E+01   0.0000000E+00   0.0000000E+00   0.0000000E+00   0.0000000E+00
   0.8181818E+01   0.3181818E+01  -0.5000000E+01   0.0000000E+00   0.0000000E+00   0.0000000E+00   0.0000000E+00
   0.8181818E+01   0.3181818E+01  -0.3750000E+01   0.0000000E+00   0.0000000E+00   0.0000000E+00   0.0000000E+00
   0.8181818E+01   0.3181818E+01  -0.2500000E+01   0.0000000E+00   0.0000000E+00   0.0000000E+00   0.0000000E+00
   0.8181818E+01   0.3181818E+01  -0.1250000E+01   0.0000000E+00   0.0000000E+00   0.0000000E+00   0.0000000E+00
   0.8181818E+01   0.3181818E+01   0.0000000E+00   0.0000000E+00   0.0000000E+00   0.0000000E+00   0.0000000E+00
   0.7272727E+01   0.2272727E+01  -0.1000000E+02   0.0000000E+00   0.0000000E+00   0.0000000E+00   0.0000000E+00
   0.7272727E+01   0.2272727E+01  -0.8750000E+01   0.0000000E+00   0.0000000E+00   0.0000000E+00   0.0000000E+00
   0.7272727E+01   0.2272727E+01  -0.7500000E+01   0.0000000E+00   0.0000000E+00   0.0000000E+00   0.0000000E+00
   0.7272727E+01   0.2272727E+01  -0.6250000E+01   0.0000000E+00   0.0000000E+00   0.0000000E+00   0.0000000E+00
   0.7272727E+01   0.2272727E+01  -0.5000000E+01   0.0000000E+00   0.0000000E+00   0.0000000E+00   0.0000000E+00
   0.7272727E+01   0.2272727E+01  -0.3750000E+01   0.0000000E+00   0.0000000E+00   0.0000000E+00   0.0000000E+00
   0.7272727E+01   0.2272727E+01  -0.2500000E+01   0.0000000E+00   0.0000000E+00   0.0000000E+00   0.0000000E+00
   0.7272727E+01   0.2272727E+01  -0.1250000E+01   0.0000000E+00   0.0000000E+00   0.0000000E+00   0.0000000E+00
   0.7272727E+01   0.2272727E+01   0.0000000E+00   0.0000000E+00   0.0000000E+00   0.0000000E+00   0.0000000E+00
   0.6363636E+01   0.1363636E+01  -0.1000000E+02   0.0000000E+00   0.0000000E+00   0.0000000E+00   0.0000000E+00
   0.6363636E+01   0.1363636E+01  -0.8750000E+01   0.0000000E+00   0.0000000E+00   0.0000000E+00   0.0000000E+00
   0.6363636E+01   0.1363636E+01  -0.7500000E+01   0.0000000E+00   0.0000000E+00   0.0000000E+00   0.0000000E+00
   0.6363636E+01   0.1363636E+01  -0.6250000E+01   0.0000000E+00   0.0000000E+00   0.0000000E+00   0.0000000E+00
   0.6363636E+01   0.1363636E+01  -0.5000000E+01   0.0000000E+00   0.0000000E+00   0.0000000E+00   0.0000000E+00
   0.6363636E+01   0.1363636E+01  -0.3750000E+01   0.0000000E+00   0.0000000E+00   0.0000000E+00   0.0000000E+00
   0.6363636E+01   0.1363636E+01  -0.2500000E+01   0.0000000E+00   0.0000000E+00   0.0000000E+00   0.0000000E+00
   0.6363636E+01   0.1363636E+01  -0.1250000E+01   0.0000000E+00   0.0000000E+00   0.0000000E+00   0.0000000E+00
   0.6363636E+01   0.1363636E+01   0.0000000E+00   0.0000000E+00   0.0000000E+00   0.0000000E+00   0.0000000E+00
   0.5454545E+01   0.4545455E+00  -0.1000000E+02   0.0000000E+00   0.0000000E+00   0.0000000E+00   0.0000000E+00
   0.5454545E+01   0.4545455E+00  -0.8750000E+01   0.0000000E+00   0.0000000E+00   0.0000000E+00   0.0000000E+00
   0.5454545E+01   0.4545455E+00  -0.7500000E+01   0.0000000E+00   0.0000000E+00   0.0000000E+00   0.0000000E+00
   0.5454545E+01   0.4545455E+00  -0.6250000E+01   0.0000000E+00   0.0000000E+00   0.0000000E+00   0.0000000E+00
   0.5454545E+01   0.4545455E+00  -0.5000000E+01   0.0000000E+00   0.0000000E+00   0.0000000E+00   0.0000000E+00
   0.5454545E+01   0.4545455E+00  -0.3750000E+01   0.0000000E+00   0.0000000E+00   0.0000000E+00   0.0000000E+00
   0.5454545E+01   0.4545455E+00  -0.2500000E+01   0.0000000E+00   0.0000000E+00   0.0000000E+00   0.0000000E+00
   0.5454545E+01   0.4545455E+00  -0.1250000E+01   0.0000000E+00   0.0000000E+00   0.0000000E+00   0.0000000E+00
   0.5454545E+01   0.4545455E+00   0.0000000E+00   0.0000000E+00   0.0000000E+00   0.0000000E+00   0.0000000E+00
   0.4545455E+01  -0.4545455E+00  -0.1000000E+02   0.0000000E+00   0.0000000E+00   0.0000000E+00   0.0000000E+00
   0.4545455E+01  -0.4545455E+00  -0.8750000E+01   0.0000000E+00   0.0000000E+00   0.0000000E+00   0.0000000E+00
   0.4545455E+01  -0.4545455E+00  -0.7500000E+01   0.0000000E+00   0.0000000E+00   0.0000000E+00   0.0000000E+00
   0.4545455E+01  -0.4545455E+00  -0.6250000E+01   0.0000000E+00   0.0000000E+00   0.0000000E+00   0.0000000E+00
   0.4545455E+01  -0.4545455E+00  -0.5000000E+01   0.0000000E+00   0.0000000E+00   0.0000000E+00   0.0000000E+00
   0.4545455E+01  -0.4545455E+00  -0.3750000E+01   0.0000000E+00   0.0000000E+00   0.0000000E+00   0.0000000E+00
   0.4545455E+01  -0.4545455E+00  -0.2500000E+01   0.0000000E+00   0.0000000E+00   0.0000000E+00   0.0000000E+00
   0.4545455E+01  -0.4545455E+00  -0.1250000E+01   0.0000000E+00   0.0000000E+00   0.0000000E+00   0.0000000E+00
   0.4545455E+01  -0.4545455E+00   0.0000000E+00   0.0000000E+00   0.0000000E+00   0.0000000E+00   0.0000000E+00
   0.3636364E+01  -0.1363636E+01  -0.1000000E+02   0.0000000E+00   0.0000000E+00   0.0000000E+00   0.0000000E+00
   0.3636364E+01  -0.1363636E+01  -0.8750000E+01   0.0000000E+00   0.0000000E+00   0.0000000E+00   0.0000000E+00
   0.3636364E+01  -0.1363636E+01  -0.7500000E+01   0.0000000E+00   0.0000000E+00   0.0000000E+00   0.0000000E+00
   0.3636364E+01  -0.1363636E+01  -0.6250000E+01   0.0000000E+00   0.0000000E+00   0.0000000E+00   0.0000000E+00
   0.3636364E+01  -0.1363636E+01  -0.5000000E+01   0.0000000E+00   0.0000000E+00   0.0000000E+00   0.0000000E+00
   0.3636364E+01  -0.1363636E+01  -0.3750000E+01   0.0000000E+00   0.0000000E+00   0.0000000E+00   0.0000000E+00
   0.3636364E+01  -0.1363636E+01  -0.2500000E+01   0.0000000E+00   0.0000000E+00   0.0000000E+00   0.0000000E+00
   0.3636364E+01  -0.1363636E+01  -0.1250000E+01   0.0000000E+00   0.0000000E+00   0.0000000E+00   0.0000000E+00
   0.3636364E+01  -0.1363636E+01   0.0000000E+00   0.0000000E+00   0.0000000E+00   0.0000000E+00   0.0000000E+00
   0.2727273E+01  -0.2272727E+01  -0.1000000E+02   0.0000000E+00   0.0000000E+00   0.0000000E+00   0.0000000E+00
   0.2727273E+01  -0.2272727E+01  -0.8750000E+01   0.0000000E+00   0.0000000E+00   0.0000000E+00   0.0000000E+00
   0.2727273E+01  -0.2272727E+01  -0.7500000E+01   0.0000000E+00   0.0000000E+00   0.0000000E+00   0.0000000E+00
   0.2727273E+01  -0.2272727E+01  -0.6250000E+01   0.0000000E+00   0.0000000E+00   0.0000000E+00   0.0000000E+00
   0.2727273E+01  -0.2272727E+01  -0.5000000E+01   0.0000000E+00   0.0000000E+00   0.0000000E+00   0.0000000E+00
   0.2727273E+01  -0.2272727E+01  -0.3750000E+01   0.0000000E+00   0.0000000E+00   0.0000000E+00   0.0000000E+00
   0.2727273E+01  -0.2272727E+01  -0.2500000E+01   0.0000000E+00   0.0000000E+00   0.0000000E+00   0.0000000E+00
   0.2727273E+01  -0.2272727E+01  -0.1250000E+01   0.0000000E+00   0.0000000E+00   0.0000000E+00   0.0000000E+00
   0.2727273E+01  -0.2272727E+01   0.0000000E+00   0.0000000E+00   0.0000000E+00   0.0000000E+00   0.0000000E+00
   0.1818182E+01  -0.3181818E+01  -0.1000000E+02   0.0000000E+00   0.0000000E+00   0.0000000E+00   0.0000000E+00
   0.1818182E+01  -0.3181818E+01  -0.8750000E+01   0.0000000E+00   0.0000000E+00   0.0000000E+00   0.0000000E+00
   0.1818182E+01  -0.3181818E+01  -0.7500000E+01   0.0000000E+00   0.0000000E+00   0.0000000E+00   0.0000000E+00
   0.1818182E+01  -0.3181818E+01  -0.6250000E+01   0.0000000E+00   0.0000000E+00   0.0000000E+00   0.0000000E+00
   0.1818182E+01  -0.3181818E+01  -0.5000000E+01   0.0000000E+00   0.0000000E+00   0.0000000E+00   0.0000000E+00
   0.1818182E+01  -0.3181818E+01  -0.3750000E+01   0.0000000E+00   0.0000000E+00   0.0000000E+00   0.0000000E+00
   0.1818182E+01  -0.3181818E+01  -0.2500000E+01   0.0000000E+00   0.0000000E+00   0.0000000E+00   0.0000000E+00
   0.1818182E+01  -0.3181818E+01  -0.1250000E+01   0.0000000E+00   0.0000000E+00   0.0000000E+00   0.0000000E+00
   0.1818182E+01  -0.3181818E+01   0.0000000E+00   0.0000000E+00   0.0000000E+00   0.0000000E+00   0.0000000E+00
   0.9090910E+00  -0.4090909E+01  -0.1000000E+02   0.0000000E+00   0.0000000E+00   0.0000000E+00   0.0000000E+00
   0.9090910E+00  -0.4090909E+01  -0.8750000E+01   0.0000000E+00   0.0000000E+00   0.0000000E+00   0.0000000E+00
   0.9090910E+00  -0.4090909E+01  -0.7500000E+01   0.0000000E+00   0.0000000E+00   0.0000000E+00   0.0000000E+00
   0.9090910E+00  -0.4090909E+01  -0.6250000E+01   0.0000000E+00   0.0000000E+00   0.0000000E+00   0.0000000E+00
   0.9090910E+00  -0.4090909E+01  -0.5000000E+01   0.0000000E+00   0.0000000E+00   0.0000000E+00   0.0000000E+00
   0.9090910E+00  -0.4090909E+01  -0.3750000E+01   0.0000000E+00   0.0000000E+00   0.0000000E+00   0.0000000E+00
   0.9090910E+00  -0.4090909E+01  -0.2500000E+01   0.0000000E+00   0.0000000E+00   0.0000000E+00   0.0000000E+00
   0.9090910E+00  -0.4090909E+01  -0.1250000E+01   0.0000000E+00   0.0000000E+00   0.0000000E+00   0.0000000E+00
   0.9090910E+00  -0.4090909E+01   0.0000000E+00   0.0000000E+00   0.0000000E+00   0.0000000E+00   0.0000000E+00
   0.0000000E+00  -0.5000000E+01  -0.1000000E+02   0.0000000E+00   0.0000000E+00   0.0000000E+00   0.0000000E+00
   0.0000000E+00  -0.5000000E+01  -0.8750000E+01   0.0000000E+00   0.0000000E+00   0.0000000E+00   0.0000000E+00
   0.0000000E+00  -0.5000000E+01  -0.7500000E+01   0.0000000E+00   0.0000000E+00   0.0000000E+00   0.0000000E+00
   0.0000000E+00  -0.5000000E+01  -0.6250000E+01   0.0000000E+00   0.0000000E+00   0.0000000E+00   0.0000000E+00
   0.0000000E+00  -0.5000000E+01  -0.5000000E+01   0.0000000E+00   0.0000000E+00   0.0000000E+00   0.0000000E+00
   0.0000000E+00  -0.5000000E+01  -0.3750000E+01   0.0000000E+00   0.0000000E+00   0.0000000E+00   0.0000000E+00
   0.0000000E+00  -0.5000000E+01  -0.2500000E+01   0.0000000E+00   0.0000000E+00   0.0000000E+00   0.0000000E+00
   0.0000000E+00  -0.5000000E+01  -0.1250000E+01   0.0000000E+00   0.0000000E+00   0.0000000E+00   0.0000000E+00
   0.0000000E+00  -0.5000000E+01   0.0000000E+00   0.0000000E+00   0.0000000E+00   0.0000000E+00   0.0000000E+00
   0.0000000E+00   0.5000000E+01  -0.1000000E+02   0.0000000E+00   0.0000000E+00   0.0000000E+00   0.0000000E+00
   0.0000000E+00   0.5000000E+01  -0.8750000E+01   0.0000000E+00   0.0000000E+00   0.0000000E+00   0.0000000E+00
   0.0000000E+00   0.5000000E+01  -0.7500000E+01   0.0000000E+00   0.0000000E+00   0.0000000E+00   0.0000000E+00
   0.0000000E+00   0.5000000E+01  -0.6250000E+01   0.0000000E+00   0.0000000E+00   0.0000000E+00   0.0000000E+00
   0.0000000E+00   0.5000000E+01  -0.5000000E+01   0.0000000E+00   0.0000000E+00   0.0000000E+00   0.0000000E+00
   0.0000000E+00   0.5000000E+01  -0.3750000E+01   0.0000000E+00   0.0000000E+00   0.0000000E+00   0.0000000E+00
   0.0000000E+00   0.5000000E+01  -0.2500000E+01   0.0000000E+00   0.0000000E+00   0.0000000E+00   0.0000000E+00
   0.0000000E+00   0.5000000E+01  -0.1250000E+01   0.0000000E+00   0.0000000E+00   0.0000000E+00   0.0000000E+00
   0.0000000E+00   0.5000000E+01   0.0000000E+00   0.0000000E+00   0.0000000E+00   0.0000000E+00   0.0000000E+00
   0.1250000E+01   0.5000000E+01  -0.1000000E+02   0.0000000E+00   0.0000000E+00   0.0000000E+00   0.0000000E+00
   0.1250000E+01   0.5000000E+01  -0.8750000E+01   0.0000000E+00   0.0000000E+00   0.0000000E+00   0.0000000E+00
   0.1250000E+01   0.5000000E+01  -0.7500000E+01   0.0000000E+00   0.0000000E+00   0.0000000E+00   0.0000000E+00
   0.1250000E+01   0.5000000E+01  -0.6250000E+01   0.0000000E+00   0.0000000E+00   0.0000000E+00   0.0000000E+00
   0.1250000E+01   0.5000000E+01  -0.5000000E+01   0.0000000E+00   0.0000000E+00   0.0000000E+00   0.0000000E+00
   0.1250000E+01   0.5000000E+01  -0.3750000E+01   0.0000000E+00   0.0000000E+00   0.0000000E+00   0.0000000E+00
   0.1250000E+01   0.5000000E+01  -0.2500000E+01   0.0000000E+00   0.0000000E+00   0.0000000E+00   0.0000000E+00
   0.1250000E+01   0.5000000E+01  -0.1250000E+01   0.0000000E+00   0.0000000E+00   0.0000000E+00   0.0000000E+00
   0.1250000E+01   0.5000000E+01   0.0000000E+00   0.0000000E+00   0.0000000E+00   0.0000000E+00   0.0000000E+00
   0.2500000E+01   0.5000000E+01  -0.1000000E+02   0.0000000E+00   0.0000000E+00   0.0000000E+00   0.0000000E+00
   0.2500000E+01   0.5000000E+01  -0.8750000E+01   0.0000000E+00   0.0000000E+00   0.0000000E+00   0.0000000E+00
   0.2500000E+01   0.5000000E+01  -0.7500000E+01   0.0000000E+00   0.0000000E+00   0.0000000E+00   0.0000000E+00
   0.2500000E+01   0.5000000E+01  -0.6250000E+01   0.0000000E+00   0.0000000E+00   0.0000000E+00   0.0000000E+00
   0.2500000E+01   0.5000000E+01  -0.5000000E+01   0.0000000E+00   0.0000000E+00   0.0000000E+00   0.0000000E+00
   0.2500000E+01   0.5000000E+01  -0.3750000E+01   0.0000000E+00   0.0000000E+00   0.0000000E+00   0.0000000E+00
   0.2500000E+01   0.5000000E+01  -0.2500000E+01   0.0000000E+00   0.0000000E+00   0.0000000E+00   0.0000000E+00
   0.2500000E+01   0.5000000E+01  -0.1250000E+01   0.0000000E+00   0.0000000E+00   0.0000000E+00   0.0000000E+00
   0.2500000E+01   0.5000000E+01   0.0000000E+00   0.0000000E+00   0.0000000E+00   0.0000000E+00   0.0000000E+00
   0.3750000E+01   0.5000000E+01  -0.1000000E+02   0.0000000E+00   0.0000000E+00   0.0000000E+00   0.0000000E+00
   0.3750000E+01   0.5000000E+01  -0.8750000E+01   0.0000000E+00   0.0000000E+00   0.0000000E+00   0.0000000E+00
   0.3750000E+01   0.5000000E+01  -0.7500000E+01   0.0000000E+00   0.0000000E+00   0.0000000E+00   0.0000000E+00
   0.3750000E+01   0.5000000E+01  -0.6250000E+01   0.0000000E+00   0.0000000E+00   0.0000000E+00   0.0000000E+00
   0.3750000E+01   0.5000000E+01  -0.5000000E+01   0.0000000E+00   0.0000000E+00   0.0000000E+00   0.0000000E+00
   0.3750000E+01   0.5000000E+01  -0.3750000E+01   0.0000000E+00   0.0000000E+00   0.0000000E+00   0.0000000E+00
   0.3750000E+01   0.5000000E+01  -0.2500000E+01   0.0000000E+00   0.0000000E+00   0.0000000E+00   0.0000000E+00
   0.3750000E+01   0.5000000E+01  -0.1250000E+01   0.0000000E+00   0.0000000E+00   0.0000000E+00   0.0000000E+00
   0.3750000E+01   0.5000000E+01   0.0000000E+00   0.0000000E+00   0.0000000E+00   0.0000000E+00   0.0000000E+00
   0.5000000E+01   0.5000000E+01  -0.1000000E+02   0.0000000E+00   0.0000000E+00   0.0000000E+00   0.0000000E+00
   0.5000000E+01   0.5000000E+01  -0.8750000E+01   0.0000000E+00   0.0000000E+00   0.0000000E+00   0.0000000E+00
   0.5000000E+01   0.5000000E+01  -0.7500000E+01   0.0000000E+00   0.0000000E+00   0.0000000E+00   0.0000000E+00
   0.5000000E+01   0.5000000E+01  -0.6250000E+01   0.0000000E+00   0.0000000E+00   0.0000000E+00   0.0000000E+00
   0.5000000E+01   0.5000000E+01  -0.5000000E+01   0.0000000E+00   0.0000000E+00   0.0000000E+00   0.0000000E+00
   0.5000000E+01   0.5000000E+01  -0.3750000E+01   0.0000000E+00   0.0000000E+00   0.0000000E+00   0.0000000E+00
   0.5000000E+01   0.5000000E+01  -0.2500000E+01   0.0000000E+00   0.0000000E+00   0.0000000E+00   0.0000000E+00
   0.5000000E+01   0.5000000E+01  -0.1250000E+01   0.0000000E+00   0.0000000E+00   0.0000000E+00   0.0000000E+00
   0.5000000E+01   0.5000000E+01   0.0000000E+00   0.0000000E+00   0.0000000E+00   0.0000000E+00   0.0000000E+00
   0.6250000E+01   0.5000000E+01  -0.1000000E+02   0.0000000E+00   0.0000000E+00   0.0000000E+00   0.0000000E+00
   0.6250000E+01   0.5000000E+01  -0.8750000E+01   0.0000000E+00   0.0000000E+00   0.0000000E+00   0.0000000E+00
   0.6250000E+01   0.5000000E+01  -0.7500000E+01   0.0000000E+00   0.0000000E+00   0.0000000E+00   0.0000000E+00
   0.6250000E+01   0.5000000E+01  -0.6250000E+01   0.0000000E+00   0.0000000E+00   0.0000000E+00   0.0000000E+00
   0.6250000E+01   0.5000000E+01  -0.5000000E+01   0.0000000E+00   0.0000000E+00   0.0000000E+00   0.0000000E+00
   0.6250000E+01   0.5000000E+01  -0.3750000E+01   0.0000000E+00   0.0000000E+00   0.0000000E+00   0.0000000E+00
   0.6250000E+01   0.5000000E+01  -0.2500000E+01   0.0000000E+00   0.0000000E+00   0.0000000E+00   0.0000000E+00
   0.6250000E+01   0.5000000E+01  -0.1250000E+01   0.0000000E+00   0.0000000E+00   0.0000000E+00   0.0000000E+00
   0.6250000E+01   0.5000000E+01   0.0000000E+00   0.0000000E+00   0.0000000E+00   0.0000000E+00   0.0000000E+00
   0.7500000E+01   0.5000000E+01  -0.1000000E+02   0.0000000E+00   0.0000000E+00   0.0000000E+00   0.0000000E+00
   0.7500000E+01   0.5000000E+01  -0.8750000E+01   0.0000000E+00   0.0000000E+00   0.0000000E+00   0.0000000E+00
   0.7500000E+01   0.5000000E+01  -0.7500000E+01   0.0000000E+00   0.0000000E+00   0.0000000E+00   0.0000000E+00
   0.7500000E+01   0.5000000E+01  -0.6250000E+01   0.0000000E+00   0.0000000E+00   0.0000000E+00   0.0000000E+00
   0.7500000E+01   0.5000000E+01  -0.5000000E+01   0.0000000E+00   0.0000000E+00   0.0000000E+00   0.0000000E+00
   0.7500000E+01   0.5000000E+01  -0.3750000E+01   0.0000000E+00   0.0000000E+00   0.0000000E+00   0.0000000E+00
   0.7500000E+01   0.5000000E+01  -0.2500000E+01   0.0000000E+00   0.0000000E+00   0.0000000E+00   0.0000000E+00
   0.7500000E+01   0.5000000E+01  -0.1250000E+01   0.0000000E+00   0.0000000E+00   0.0000000E+00   0.0000000E+00
   0.7500000E+01   0.5000000E+01   0.0000000E+00   0.0000000E+00   0.0000000E+00   0.0000000E+00   0.0000000E+00
   0.8750000E+01   0.5000000E+01  -0.1000000E+02   0.0000000E+00   0.0000000E+00   0.0000000E+00   0.0000000E+00
   0.8750000E+01   0.5000000E+01  -0.8750000E+01   0.0000000E+00   0.0000000E+00   0.0000000E+00   0.0000000E+00
   0.8750000E+01   0.5000000E+01  -0.7500000E+01   0.0000000E+00   0.0000000E+00   0.0000000E+00   0.0000000E+00
   0.8750000E+01   0.5000000E+01  -0.6250000E+01   0.0000000E+00   0.0000000E+00   0.0000000E+00   0.0000000E+00
   0.8750000E+01   0.5000000E+01  -0.5000000E+01   0.0000000E+00   0.0000000E+00   0.0000000E+00   0.0000000E+00
   0.8750000E+01   0.5000000E+01  -0.3750000E+01   0.0000000E+00   0.0000000E+00   0.0000000E+00   0.0000000E+00
   0.8750000E+01   0.5000000E+01  -0.2500000E+01   0.0000000E+00   0.0000000E+00   0.0000000E+00   0.0000000E+00
   0.8750000E+01   0.5000000E+01  -0.1250000E+01   0.0000000E+00   0.0000000E+00   0.0000000E+00   0.0000000E+00
   0.8750000E+01   0.5000000E+01   0.0000000E+00   0.0000000E+00   0.0000000E+00   0.0000000E+00   0.0000000E+00
   0.1000000E+02   0.5000000E+01  -0.1000000E+02   0.0000000E+00   0.0000000E+00   0.0000000E+00   0.0000000E+00
   0.1000000E+02   0.5000000E+01  -0.8750000E+01   0.0000000E+00   0.0000000E+00   0.0000000E+00   0.0000000E+00
   0.1000000E+02   0.5000000E+01  -0.7500000E+01   0.0000000E+00   0.0000000E+00   0.0000000E+00   0.0000000E+00
   0.1000000E+02   0.5000000E+01  -0.6250000E+01   0.0000000E+00   0.0000000E+00   0.0000000E+00   0.0000000E+00
   0.1000000E+02   0.5000000E+01  -0.5000000E+01   0.0000000E+00   0.0000000E+00   0.0000000E+00   0.0000000E+00
   0.1000000E+02   0.5000000E+01  -0.3750000E+01   0.0000000E+00   0.0000000E+00   0.0000000E+00   0.0000000E+00
   0.1000000E+02   0.5000000E+01  -0.2500000E+01   0.0000000E+00   0.0000000E+00   0.0000000E+00   0.0000000E+00
   0.1000000E+02   0.5000000E+01  -0.1250000E+01   0.0000000E+00   0.0000000E+00   0.0000000E+00   0.0000000E+00
   0.1000000E+02   0.5000000E+01   0.0000000E+00   0.0000000E+00   0.0000000E+00   0.0000000E+00   0.0000000E+00
   0.0000000E+00  -0.5000000E+01  -0.1000000E+02   0.0000000E+00   0.0000000E+00   0.0000000E+00   0.0000000E+00
   0.0000000E+00  -0.5000000E+01  -0.8750000E+01   0.0000000E+00   0.0000000E+00   0.0000000E+00   0.0000000E+00
   0.0000000E+00  -0.5000000E+01  -0.7500000E+01   0.0000000E+00   0.0000000E+00   0.0000000E+00   0.0000000E+00
   0.0000000E+00  -0.5000000E+01  -0.6250000E+01   0.0000000E+00   0.0000000E+00   0.0000000E+00   0.0000000E+00
   0.0000000E+00  -0.5000000E+01  -0.5000000E+01   0.0000000E+00   0.0000000E+00   0.0000000E+00   0.0000000E+00
   0.0000000E+00  -0.5000000E+01  -0.3750000E+01   0.0000000E+00   0.0000000E+00   0.0000000E+00   0.0000000E+00
   0.0000000E+00  -0.5000000E+01  -0.2500000E+01   0.0000000E+00   0.0000000E+00   0.0000000E+00   0.0000000E+00
   0.0000000E+00  -0.5000000E+01  -0.1250000E+01   0.0000000E+00   0.0000000E+00   0.0000000E+00   0.0000000E+00
   0.0000000E+00  -0.5000000E+01   0.0000000E+00   0.0000000E+00   0.0000000E+00   0.0000000E+00   0.0000000E+00
   0.0000000E+00  -0.3750000E+01  -0.1000000E+02   0.0000000E+00   0.0000000E+00   0.0000000E+00   0.0000000E+00
   0.0000000E+00  -0.3750000E+01  -0.8750000E+01   0.0000000E+00   0.0000000E+00   0.0000000E+00   0.0000000E+00
   0.0000000E+00  -0.3750000E+01  -0.7500000E+01   0.0000000E+00   0.0000000E+00   0.0000000E+00   0.0000000E+00
   0.0000000E+00  -0.3750000E+01  -0.6250000E+01   0.0000000E+00   0.0000000E+00   0.0000000E+00   0.0000000E+00
   0.0000000E+00  -0.3750000E+01  -0.5000000E+01   0.0000000E+00   0.0000000E+00   0.0000000E+00   0.0000000E+00
   0.0000000E+00  -0.3750000E+01  -0.3750000E+01   0.0000000E+00   0.0000000E+00   0.0000000E+00   0.0000000E+00
   0.0000000E+00  -0.3750000E+01  -0.2500000E+01   0.0000000E+00   0.0000000E+00   0.0000000E+00   0.0000000E+00
   0.0000000E+00  -0.3750000E+01  -0.1250000E+01   0.0000000E+00   0.0000000E+00   0.0000000E+00   0.0000000E+00
   0.0000000E+00  -0.3750000E+01   0.0000000E+00   0.0000000E+00   0.0000000E+00   0.0000000E+00   0.0000000E+00
   0.0000000E+00  -0.2500000E+01  -0.1000000E+02   0.0000000E+00   0.0000000E+00   0.0000000E+00   0.0000000E+00
   0.0000000E+00  -0.2500000E+01  -0.8750000E+01   0.0000000E+00   0.0000000E+00   0.0000000E+00   0.0000000E+00
   0.0000000E+00  -0.2500000E+01  -0.7500000E+01   0.0000000E+00   0.0000000E+00   0.0000000E+00   0.0000000E+00
   0.0000000E+00  -0.2500000E+01  -0.6250000E+01   0.0000000E+00   0.0000000E+00   0.0000000E+00   0.0000000E+00
   0.0000000E+00  -0.2500000E+01  -0.5000000E+01   0.0000000E+00   0.0000000E+00   0.0000000E+00   0.0000000E+00
   0.0000000E+00  -0.2500000E+01  -0.3750000E+01   0.0000000E+00   0.0000000E+00   0.0000000E+00   0.0000000E+00
   0.0000000E+00  -0.2500000E+01  -0.2500000E+01   0.0000000E+00   0.0000000E+00   0.0000000E+00   0.0000000E+00
   0.0000000E+00  -0.2500000E+01  -0.1250000E+01   0.0000000E+00   0.0000000E+00   0.0000000E+00   0.0000000E+00
   0.0000000E+00  -0.2500000E+01   0.0000000E+00   0.0000000E+00   0.0000000E+00   0.0000000E+00   0.0000000E+00
   0.0000000E+00  -0.1250000E+01  -0.1000000E+02   0.0000000E+00   0.0000000E+00   0.0000000E+00   0.0000000E+00
   0.0000000E+00  -0.1250000E+01  -0.8750000E+01   0.0000000E+00   0.0000000E+00   0.0000000E+00   0.0000000E+00
   0.0000000E+00  -0.1250000E+01  -0.7500000E+01   0.0000000E+00   0.0000000E+00   0.0000000E+00   0.0000000E+00
   0.0000000E+00  -0.1250000E+01  -0.6250000E+01   0.0000000E+00   0.0000000E+00   0.0000000E+00   0.0000000E+00
   0.0000000E+00  -0.1250000E+01  -0.5000000E+01   0.0000000E+00   0.0000000E+00   0.0000000E+00   0.0000000E+00
   0.0000000E+00  -0.1250000E+01  -0.3750000E+01   0.0000000E+00   0.0000000E+00   0.0000000E+00   0.0000000E+00
   0.0000000E+00  -0.1250000E+01  -0.2500000E+01   0.0000000E+00   0.0000000E+00   0.0000000E+00   0.0000000E+00
   0.0000000E+00  -0.1250000E+01  -0.1250000E+01   0.0000000E+00   0.0000000E+00   0.0000000E+00   0.0000000E+00
   0.0000000E+00  -0.1250000E+01   0.0000000E+00   0.0000000E+00   0.0000000E+00   0.0000000E+00   0.0000000E+00
   0.0000000E+00   0.0000000E+00  -0.1000000E+02   0.0000000E+00   0.0000000E+00   0.0000000E+00   0.0000000E+00
   0.0000000E+00   0.0000000E+00  -0.8750000E+01   0.0000000E+00   0.0000000E+00   0.0000000E+00   0.0000000E+00
   0.0000000E+00   0.0000000E+00  -0.7500000E+01   0.0000000E+00   0.0000000E+00   0.0000000E+00   0.0000000E+00
   0.0000000E+00   0.0000000E+00  -0.6250000E+01   0.0000000E+00   0.0000000E+00   0.0000000E+00   0.0000000E+00
   0.0000000E+00   0.0000000E+00  -0.5000000E+01   0.0000000E+00   0.0000000E+00   0.0000000E+00   0.0000000E+00
   0.0000000E+00   0.0000000E+00  -0.3750000E+01   0.0000000E+00   0.0000000E+00   0.0000000E+00   0.0000000E+00
   0.0000000E+00   0.0000000E+00  -0.2500000E+01   0.0000000E+00   0.0000000E+00   0.0000000E+00   0.0000000E+00
   0.0000000E+00   0.0000000E+00  -0.1250000E+01   0.0000000E+00   0.0000000E+00   0.0000000E+00   0.0000000E+00
   0.0000000E+00   0.0000000E+00   0.0000000E+00   0.0000000E+00   0.0000000E+00   0.0000000E+00   0.0000000E+00
   0.0000000E+00   0.1250000E+01  -0.1000000E+02   0.0000000E+00   0.0000000E+00   0.0000000E+00   0.0000000E+00
   0.0000000E+00   0.1250000E+01  -0.8750000E+01   0.0000000E+00   0.0000000E+00   0.0000000E+00   0.0000000E+00
   0.0000000E+00   0.1250000E+01  -0.7500000E+01   0.0000000E+00   0.0000000E+00   0.0000000E+00   0.0000000E+00
   0.0000000E+00   0.1250000E+01  -0.6250000E+01   0.0000000E+00   0.0000000E+00   0.0000000E+00   0.0000000E+00
   0.0000000E+00   0.1250000E+01  -0.5000000E+01   0.0000000E+00   0.0000000E+00   0.0000000E+00   0.0000000E+00
   0.0000000E+00   0.1250000E+01  -0.3750000E+01   0.0000000E+00   0.0000000E+00   0.0000000E+00   0.0000000E+00
   0.0000000E+00   0.1250000E+01  -0.2500000E+01   0.0000000E+00   0.0000000E+00   0.0000000E+00   0.0000000E+00
   0.0000000E+00   0.1250000E+01  -0.1250000E+01   0.0000000E+00   0.0000000E+00   0.0000000E+00   0.0000000E+00
   0.0000000E+00   0.1250000E+01   0.0000000E+00   0.0000000E+00   0.0000000E+00   0.0000000E+00   0.0000000E+00
   0.0000000E+00   0.2500000E+01  -0.1000000E+02   0.0000000E+00   0.0000000E+00   0.0000000E+00   0.0000000E+00
   0.0000000E+00   0.2500000E+01  -0.8750000E+01   0.0000000E+00   0.0000000E+00   0.0000000E+00   0.0000000E+00
   0.0000000E+00   0.2500000E+01  -0.7500000E+01   0.0000000E+00   0.0000000E+00   0.0000000E+00   0.0000000E+00
   0.0000000E+00   0.2500000E+01  -0.6250000E+01   0.0000000E+00   0.0000000E+00   0.0000000E+00   0.0000000E+00
   0.0000000E+00   0.2500000E+01  -0.5000000E+01   0.0000000E+00   0.0000000E+00   0.0000000E+00   0.0000000E+00
   0.0000000E+00   0.2500000E+01  -0.3750000E+01   0.0000000E+00   0.0000000E+00   0.0000000E+00   0.0000000E+00
   0.0000000E+00   0.2500000E+01  -0.2500000E+01   0.0000000E+00   0.0000000E+00   0.0000000E+00   0.0000000E+00
   0.0000000E+00   0.2500000E+01  -0.1250000E+01   0.0000000E+00   0.0000000E+00   0.0000000E+00   0.0000000E+00
   0.0000000E+00   0.2500000E+01   0.0000000E+00   0.0000000E+00   0.0000000E+00   0.0000000E+00   0.0000000E+00
   0.0000000E+00   0.3750000E+01  -0.1000000E+02   0.0000000E+00   0.0000000E+00   0.0000000E+00   0.0000000E+00
   0.0000000E+00   0.3750000E+01  -0.8750000E+01   0.0000000E+00   0.0000000E+00   0.0000000E+00   0.0000000E+00
   0.0000000E+00   0.3750000E+01  -0.7500000E+01   0.0000000E+00   0.0000000E+00   0.0000000E+00   0.0000000E+00
   0.0000000E+00   0.3750000E+01  -0.6250000E+01   0.0000000E+00   0.0000000E+00   0.0000000E+00   0.0000000E+00
   0.0000000E+00   0.3750000E+01  -0.5000000E+01   0.0000000E+00   0.0000000E+00   0.0000000E+00   0.0000000E+00
   0.0000000E+00   0.3750000E+01  -0.3750000E+01   0.0000000E+00   0.0000000E+00   0.0000000E+00   0.0000000E+00
   0.0000000E+00   0.3750000E+01  -0.2500000E+01   0.0000000E+00   0.0000000E+00   0.0000000E+00   0.0000000E+00
   0.0000000E+00   0.3750000E+01  -0.1250000E+01   0.0000000E+00   0.0000000E+00   0.0000000E+00   0.0000000E+00
   0.0000000E+00   0.3750000E+01   0.0000000E+00   0.0000000E+00   0.0000000E+00   0.0000000E+00   0.0000000E+00
   0.0000000E+00   0.5000000E+01  -0.1000000E+02   0.0000000E+00   0.0000000E+00   0.0000000E+00   0.0000000E+00
   0.0000000E+00   0.5000000E+01  -0.8750000E+01   0.0000000E+00   0.0000000E+00   0.0000000E+00   0.0000000E+00
   0.0000000E+00   0.5000000E+01  -0.7500000E+01   0.0000000E+00   0.0000000E+00   0.0000000E+00   0.0000000E+00